LAMMPS Description

2220  atoms
36  bonds
18  angles
0  dihedrals
0  impropers

4 atom types
1 bond types
1 angle types
0  dihedral types
0  improper types

0.0 29.46 xlo xhi
0.0 54.020 ylo yhi
0.0 30 zlo zhi

Masses

1 15.999400  # O
2 28.085500  # Si
3 15.999400  # Oh
4  1.008000  # H

Atoms # full

1  1  1  -1.050000  3.387104013  0.92944111  0.888103916
2  1  1  -1.050000  0.932106061  0.92944111  5.140285099
3  1  1  -1.050000  3.985551224  4.530774443  4.654557712
4  1  1  -1.050000  1.530553274  4.530774443  0.402376529
5  1  1  -1.050000  4.493174337  2.730107778  6.505241509
6  1  1  -1.050000  2.038176387  2.730107778  2.253060326
7  1  1  -1.050000  3.387104013  5.07278111  7.143831509
8  1  1  -1.050000  0.932106061  5.07278111  2.891650325
9  1  1  -1.050000  3.985551224  1.471447778  3.377377712
10  1  1  -1.050000  1.530553274  1.471447778  7.629558895
11  1  1  -1.050000  4.493174337  3.272114444  1.526693916
12  1  1  -1.050000  2.038176387  3.272114444  5.778875098
13  1  2  2.100000  2.412977821  0.300111111  8.268148895
14  1  2  2.100000  4.867979869  0.300111111  4.015967712
15  1  2  2.100000  3.498926902  3.901444444  6.060334434
16  1  2  2.100000  1.043928951  3.901444444  1.80815325
17  1  2  2.100000  3.498926902  2.100777778  1.971600989
18  1  2  2.100000  1.043928951  2.100777778  6.223782173
19  2  1  -1.050000  3.387104013  0.92944111  9.392503916
20  2  1  -1.050000  0.932106061  0.92944111  13.644685099
21  2  1  -1.050000  3.985551224  4.530774443  13.158957712
22  2  1  -1.050000  1.530553274  4.530774443  8.906776529
23  2  1  -1.050000  4.493174337  2.730107778  15.009641509000001
24  2  1  -1.050000  2.038176387  2.730107778  10.757460326
25  2  1  -1.050000  3.387104013  5.07278111  15.648231509
26  2  1  -1.050000  0.932106061  5.07278111  11.396050325000001
27  2  1  -1.050000  3.985551224  1.471447778  11.881777712
28  2  1  -1.050000  1.530553274  1.471447778  16.133958895
29  2  1  -1.050000  4.493174337  3.272114444  10.031093916
30  2  1  -1.050000  2.038176387  3.272114444  14.283275098
31  2  2  2.100000  2.412977821  0.300111111  16.772548895
32  2  2  2.100000  4.867979869  0.300111111  12.520367712
33  2  2  2.100000  3.498926902  3.901444444  14.564734434
34  2  2  2.100000  1.043928951  3.901444444  10.31255325
35  2  2  2.100000  3.498926902  2.100777778  10.476000989000001
36  2  2  2.100000  1.043928951  2.100777778  14.728182173
37  3  1  -1.050000  3.387104013  0.92944111  17.896903916
38  3  1  -1.050000  0.932106061  0.92944111  22.149085099
39  3  1  -1.050000  3.985551224  4.530774443  21.663357712
40  3  1  -1.050000  1.530553274  4.530774443  17.411176529000002
41  3  1  -1.050000  4.493174337  2.730107778  23.514041509000002
42  3  1  -1.050000  2.038176387  2.730107778  19.261860326
43  3  3  -0.950000  3.387104013  5.07278111  24.152631509000003
44  3  1  -1.050000  0.932106061  5.07278111  19.900450325
45  3  1  -1.050000  3.985551224  1.471447778  20.386177712000002
46  3  3  -0.950000  1.530553274  1.471447778  24.638358895
47  3  1  -1.050000  4.493174337  3.272114444  18.535493916
48  3  1  -1.050000  2.038176387  3.272114444  22.787675098
49  3  2  2.100000  4.867979869  0.300111111  21.024767712
50  3  2  2.100000  3.498926902  3.901444444  23.069134434
51  3  2  2.100000  1.043928951  3.901444444  18.81695325
52  3  2  2.100000  3.498926902  2.100777778  18.980400989
53  3  2  2.100000  1.043928951  2.100777778  23.232582173
54  4  1  -1.050000  3.387104013  6.33144111  0.888103916
55  4  1  -1.050000  0.932106061  6.33144111  5.140285099
56  4  1  -1.050000  3.985551224  9.932774443  4.654557712
57  4  1  -1.050000  1.530553274  9.932774443  0.402376529
58  4  1  -1.050000  4.493174337  8.132107778  6.505241509
59  4  1  -1.050000  2.038176387  8.132107778  2.253060326
60  4  1  -1.050000  3.387104013  10.47478111  7.143831509
61  4  1  -1.050000  0.932106061  10.47478111  2.891650325
62  4  1  -1.050000  3.985551224  6.873447778  3.377377712
63  4  1  -1.050000  1.530553274  6.873447778  7.629558895
64  4  1  -1.050000  4.493174337  8.674114444  1.526693916
65  4  1  -1.050000  2.038176387  8.674114444  5.778875098
66  4  2  2.100000  2.412977821  5.702111111  8.268148895
67  4  2  2.100000  4.867979869  5.702111111  4.015967712
68  4  2  2.100000  3.498926902  9.303444444  6.060334434
69  4  2  2.100000  1.043928951  9.303444444  1.80815325
70  4  2  2.100000  3.498926902  7.5027777780000005  1.971600989
71  4  2  2.100000  1.043928951  7.5027777780000005  6.223782173
72  5  1  -1.050000  3.387104013  6.33144111  9.392503916
73  5  1  -1.050000  0.932106061  6.33144111  13.644685099
74  5  3  -0.950000  3.985551224  9.932774443  13.158957712
75  5  1  -1.050000  1.530553274  9.932774443  8.906776529
76  5  1  -1.050000  4.493174337  8.132107778  15.009641509000001
77  5  1  -1.050000  2.038176387  8.132107778  10.757460326
78  5  3  -0.950000  3.387104013  10.47478111  15.648231509
79  5  3  -0.950000  0.932106061  10.47478111  11.396050325000001
80  5  1  -1.050000  3.985551224  6.873447778  11.881777712
81  5  1  -1.050000  1.530553274  6.873447778  16.133958895
82  5  1  -1.050000  4.493174337  8.674114444  10.031093916
83  5  1  -1.050000  2.038176387  8.674114444  14.283275098
84  5  2  2.100000  2.412977821  5.702111111  16.772548895
85  5  2  2.100000  4.867979869  5.702111111  12.520367712
86  5  2  2.100000  3.498926902  9.303444444  14.564734434
87  5  2  2.100000  1.043928951  9.303444444  10.31255325
88  5  2  2.100000  3.498926902  7.5027777780000005  10.476000989000001
89  5  2  2.100000  1.043928951  7.5027777780000005  14.728182173
90  6  1  -1.050000  3.387104013  6.33144111  17.896903916
91  6  1  -1.050000  0.932106061  6.33144111  22.149085099
92  6  3  -0.950000  3.985551224  9.932774443  21.663357712
93  6  3  -0.950000  1.530553274  9.932774443  17.411176529000002
94  6  1  -1.050000  4.493174337  8.132107778  23.514041509000002
95  6  1  -1.050000  2.038176387  8.132107778  19.261860326
96  6  3  -0.950000  3.387104013  10.47478111  24.152631509000003
97  6  3  -0.950000  0.932106061  10.47478111  19.900450325
98  6  1  -1.050000  3.985551224  6.873447778  20.386177712000002
99  6  3  -0.950000  1.530553274  6.873447778  24.638358895
100  6  1  -1.050000  4.493174337  8.674114444  18.535493916
101  6  1  -1.050000  2.038176387  8.674114444  22.787675098
102  6  2  2.100000  4.867979869  5.702111111  21.024767712
103  6  2  2.100000  3.498926902  9.303444444  23.069134434
104  6  2  2.100000  1.043928951  9.303444444  18.81695325
105  6  2  2.100000  3.498926902  7.5027777780000005  18.980400989
106  6  2  2.100000  1.043928951  7.5027777780000005  23.232582173
107  7  1  -1.050000  3.387104013  11.733441110000001  0.888103916
108  7  1  -1.050000  0.932106061  11.733441110000001  5.140285099
109  7  1  -1.050000  3.985551224  15.334774443  4.654557712
110  7  1  -1.050000  1.530553274  15.334774443  0.402376529
111  7  1  -1.050000  4.493174337  13.534107778  6.505241509
112  7  1  -1.050000  2.038176387  13.534107778  2.253060326
113  7  1  -1.050000  3.387104013  15.87678111  7.143831509
114  7  1  -1.050000  0.932106061  15.87678111  2.891650325
115  7  1  -1.050000  3.985551224  12.275447778  3.377377712
116  7  1  -1.050000  1.530553274  12.275447778  7.629558895
117  7  1  -1.050000  4.493174337  14.076114444  1.526693916
118  7  1  -1.050000  2.038176387  14.076114444  5.778875098
119  7  2  2.100000  2.412977821  11.104111111  8.268148895
120  7  2  2.100000  4.867979869  11.104111111  4.015967712
121  7  2  2.100000  3.498926902  14.705444444000001  6.060334434
122  7  2  2.100000  1.043928951  14.705444444000001  1.80815325
123  7  2  2.100000  3.498926902  12.904777778  1.971600989
124  7  2  2.100000  1.043928951  12.904777778  6.223782173
125  8  3  -0.950000  3.387104013  11.733441110000001  9.392503916
126  8  3  -0.950000  1.530553274  15.334774443  8.906776529
127  10  1  -1.050000  3.387104013  17.13544111  0.888103916
128  10  1  -1.050000  0.932106061  17.13544111  5.140285099
129  10  1  -1.050000  3.985551224  20.736774443  4.654557712
130  10  1  -1.050000  1.530553274  20.736774443  0.402376529
131  10  1  -1.050000  4.493174337  18.936107778  6.505241509
132  10  1  -1.050000  2.038176387  18.936107778  2.253060326
133  10  1  -1.050000  3.387104013  21.27878111  7.143831509
134  10  1  -1.050000  0.932106061  21.27878111  2.891650325
135  10  1  -1.050000  3.985551224  17.677447778  3.377377712
136  10  1  -1.050000  1.530553274  17.677447778  7.629558895
137  10  1  -1.050000  4.493174337  19.478114444  1.526693916
138  10  1  -1.050000  2.038176387  19.478114444  5.778875098
139  10  2  2.100000  2.412977821  16.506111111  8.268148895
140  10  2  2.100000  4.867979869  16.506111111  4.015967712
141  10  2  2.100000  3.498926902  20.107444444  6.060334434
142  10  2  2.100000  1.043928951  20.107444444  1.80815325
143  10  2  2.100000  3.498926902  18.306777778  1.971600989
144  10  2  2.100000  1.043928951  18.306777778  6.223782173
145  11  3  -0.950000  3.387104013  17.13544111  9.392503916
146  11  3  -0.950000  1.530553274  20.736774443  8.906776529
147  13  1  -1.050000  3.387104013  22.53744111  0.888103916
148  13  1  -1.050000  0.932106061  22.53744111  5.140285099
149  13  1  -1.050000  3.985551224  26.138774443000003  4.654557712
150  13  1  -1.050000  1.530553274  26.138774443000003  0.402376529
151  13  1  -1.050000  4.493174337  24.338107778  6.505241509
152  13  1  -1.050000  2.038176387  24.338107778  2.253060326
153  13  1  -1.050000  3.387104013  26.68078111  7.143831509
154  13  1  -1.050000  0.932106061  26.68078111  2.891650325
155  13  1  -1.050000  3.985551224  23.079447778000002  3.377377712
156  13  1  -1.050000  1.530553274  23.079447778000002  7.629558895
157  13  1  -1.050000  4.493174337  24.880114444  1.526693916
158  13  1  -1.050000  2.038176387  24.880114444  5.778875098
159  13  2  2.100000  2.412977821  21.908111111  8.268148895
160  13  2  2.100000  4.867979869  21.908111111  4.015967712
161  13  2  2.100000  3.498926902  25.509444444  6.060334434
162  13  2  2.100000  1.043928951  25.509444444  1.80815325
163  13  2  2.100000  3.498926902  23.708777778  1.971600989
164  13  2  2.100000  1.043928951  23.708777778  6.223782173
165  14  3  -0.950000  3.387104013  22.53744111  9.392503916
166  14  3  -0.950000  1.530553274  26.138774443000003  8.906776529
167  16  1  -1.050000  3.387104013  27.93944111  0.888103916
168  16  1  -1.050000  0.932106061  27.93944111  5.140285099
169  16  1  -1.050000  3.985551224  31.540774443000004  4.654557712
170  16  1  -1.050000  1.530553274  31.540774443000004  0.402376529
171  16  1  -1.050000  4.493174337  29.740107778000002  6.505241509
172  16  1  -1.050000  2.038176387  29.740107778000002  2.253060326
173  16  1  -1.050000  3.387104013  32.08278111  7.143831509
174  16  1  -1.050000  0.932106061  32.08278111  2.891650325
175  16  1  -1.050000  3.985551224  28.481447778000003  3.377377712
176  16  1  -1.050000  1.530553274  28.481447778000003  7.629558895
177  16  1  -1.050000  4.493174337  30.282114444  1.526693916
178  16  1  -1.050000  2.038176387  30.282114444  5.778875098
179  16  2  2.100000  2.412977821  27.310111111  8.268148895
180  16  2  2.100000  4.867979869  27.310111111  4.015967712
181  16  2  2.100000  3.498926902  30.911444444  6.060334434
182  16  2  2.100000  1.043928951  30.911444444  1.80815325
183  16  2  2.100000  3.498926902  29.110777778000003  1.971600989
184  16  2  2.100000  1.043928951  29.110777778000003  6.223782173
185  17  3  -0.950000  3.387104013  27.93944111  9.392503916
186  17  3  -0.950000  1.530553274  31.540774443000004  8.906776529
187  19  1  -1.050000  3.387104013  33.34144111  0.888103916
188  19  1  -1.050000  0.932106061  33.34144111  5.140285099
189  19  1  -1.050000  3.985551224  36.942774443  4.654557712
190  19  1  -1.050000  1.530553274  36.942774443  0.402376529
191  19  1  -1.050000  4.493174337  35.142107777999996  6.505241509
192  19  1  -1.050000  2.038176387  35.142107777999996  2.253060326
193  19  1  -1.050000  3.387104013  37.48478111  7.143831509
194  19  1  -1.050000  0.932106061  37.48478111  2.891650325
195  19  1  -1.050000  3.985551224  33.883447778  3.377377712
196  19  1  -1.050000  1.530553274  33.883447778  7.629558895
197  19  1  -1.050000  4.493174337  35.684114444  1.526693916
198  19  1  -1.050000  2.038176387  35.684114444  5.778875098
199  19  2  2.100000  2.412977821  32.712111111  8.268148895
200  19  2  2.100000  4.867979869  32.712111111  4.015967712
201  19  2  2.100000  3.498926902  36.313444444  6.060334434
202  19  2  2.100000  1.043928951  36.313444444  1.80815325
203  19  2  2.100000  3.498926902  34.512777778  1.971600989
204  19  2  2.100000  1.043928951  34.512777778  6.223782173
205  20  3  -0.950000  3.387104013  33.34144111  9.392503916
206  20  3  -0.950000  1.530553274  36.942774443  8.906776529
207  22  1  -1.050000  3.387104013  38.74344111  0.888103916
208  22  1  -1.050000  0.932106061  38.74344111  5.140285099
209  22  1  -1.050000  3.985551224  42.344774443  4.654557712
210  22  1  -1.050000  1.530553274  42.344774443  0.402376529
211  22  1  -1.050000  4.493174337  40.544107778  6.505241509
212  22  1  -1.050000  2.038176387  40.544107778  2.253060326
213  22  1  -1.050000  3.387104013  42.88678111  7.143831509
214  22  1  -1.050000  0.932106061  42.88678111  2.891650325
215  22  1  -1.050000  3.985551224  39.285447778  3.377377712
216  22  1  -1.050000  1.530553274  39.285447778  7.629558895
217  22  1  -1.050000  4.493174337  41.086114444  1.526693916
218  22  1  -1.050000  2.038176387  41.086114444  5.778875098
219  22  2  2.100000  2.412977821  38.114111111  8.268148895
220  22  2  2.100000  4.867979869  38.114111111  4.015967712
221  22  2  2.100000  3.498926902  41.715444444  6.060334434
222  22  2  2.100000  1.043928951  41.715444444  1.80815325
223  22  2  2.100000  3.498926902  39.914777778  1.971600989
224  22  2  2.100000  1.043928951  39.914777778  6.223782173
225  23  3  -0.950000  3.387104013  38.74344111  9.392503916
226  23  3  -0.950000  3.985551224  42.344774443  13.158957712
227  23  3  -0.950000  1.530553274  42.344774443  8.906776529
228  23  3  -0.950000  3.387104013  42.88678111  15.648231509
229  23  3  -0.950000  0.932106061  42.88678111  11.396050325000001
230  24  3  -0.950000  3.985551224  42.344774443  21.663357712
231  24  3  -0.950000  1.530553274  42.344774443  17.411176529000002
232  24  3  -0.950000  0.932106061  42.88678111  19.900450325
233  25  1  -1.050000  3.387104013  44.14544111  0.888103916
234  25  1  -1.050000  0.932106061  44.14544111  5.140285099
235  25  1  -1.050000  3.985551224  47.746774443  4.654557712
236  25  1  -1.050000  1.530553274  47.746774443  0.402376529
237  25  1  -1.050000  4.493174337  45.946107778  6.505241509
238  25  1  -1.050000  2.038176387  45.946107778  2.253060326
239  25  1  -1.050000  3.387104013  48.28878111  7.143831509
240  25  1  -1.050000  0.932106061  48.28878111  2.891650325
241  25  1  -1.050000  3.985551224  44.687447778  3.377377712
242  25  1  -1.050000  1.530553274  44.687447778  7.629558895
243  25  1  -1.050000  4.493174337  46.488114444000004  1.526693916
244  25  1  -1.050000  2.038176387  46.488114444000004  5.778875098
245  25  2  2.100000  2.412977821  43.516111111  8.268148895
246  25  2  2.100000  4.867979869  43.516111111  4.015967712
247  25  2  2.100000  3.498926902  47.117444444  6.060334434
248  25  2  2.100000  1.043928951  47.117444444  1.80815325
249  25  2  2.100000  3.498926902  45.316777778  1.971600989
250  25  2  2.100000  1.043928951  45.316777778  6.223782173
251  26  1  -1.050000  3.387104013  44.14544111  9.392503916
252  26  1  -1.050000  0.932106061  44.14544111  13.644685099
253  26  1  -1.050000  3.985551224  47.746774443  13.158957712
254  26  1  -1.050000  1.530553274  47.746774443  8.906776529
255  26  1  -1.050000  4.493174337  45.946107778  15.009641509000001
256  26  1  -1.050000  2.038176387  45.946107778  10.757460326
257  26  1  -1.050000  3.387104013  48.28878111  15.648231509
258  26  1  -1.050000  0.932106061  48.28878111  11.396050325000001
259  26  1  -1.050000  3.985551224  44.687447778  11.881777712
260  26  1  -1.050000  1.530553274  44.687447778  16.133958895
261  26  1  -1.050000  4.493174337  46.488114444000004  10.031093916
262  26  1  -1.050000  2.038176387  46.488114444000004  14.283275098
263  26  2  2.100000  2.412977821  43.516111111  16.772548895
264  26  2  2.100000  4.867979869  43.516111111  12.520367712
265  26  2  2.100000  3.498926902  47.117444444  14.564734434
266  26  2  2.100000  1.043928951  47.117444444  10.31255325
267  26  2  2.100000  3.498926902  45.316777778  10.476000989000001
268  26  2  2.100000  1.043928951  45.316777778  14.728182173
269  27  1  -1.050000  3.387104013  44.14544111  17.896903916
270  27  1  -1.050000  0.932106061  44.14544111  22.149085099
271  27  1  -1.050000  3.985551224  47.746774443  21.663357712
272  27  1  -1.050000  1.530553274  47.746774443  17.411176529000002
273  27  1  -1.050000  4.493174337  45.946107778  23.514041509000002
274  27  1  -1.050000  2.038176387  45.946107778  19.261860326
275  27  3  -0.950000  3.387104013  48.28878111  24.152631509000003
276  27  1  -1.050000  0.932106061  48.28878111  19.900450325
277  27  1  -1.050000  3.985551224  44.687447778  20.386177712000002
278  27  3  -0.950000  1.530553274  44.687447778  24.638358895
279  27  1  -1.050000  4.493174337  46.488114444000004  18.535493916
280  27  1  -1.050000  2.038176387  46.488114444000004  22.787675098
281  27  2  2.100000  4.867979869  43.516111111  21.024767712
282  27  2  2.100000  3.498926902  47.117444444  23.069134434
283  27  2  2.100000  1.043928951  47.117444444  18.81695325
284  27  2  2.100000  3.498926902  45.316777778  18.980400989
285  27  2  2.100000  1.043928951  45.316777778  23.232582173
286  28  1  -1.050000  3.387104013  49.54744111  0.888103916
287  28  1  -1.050000  0.932106061  49.54744111  5.140285099
288  28  1  -1.050000  3.985551224  53.148774443  4.654557712
289  28  1  -1.050000  1.530553274  53.148774443  0.402376529
290  28  1  -1.050000  4.493174337  51.348107778  6.505241509
291  28  1  -1.050000  2.038176387  51.348107778  2.253060326
292  28  1  -1.050000  3.387104013  53.69078111  7.143831509
293  28  1  -1.050000  0.932106061  53.69078111  2.891650325
294  28  1  -1.050000  3.985551224  50.089447778  3.377377712
295  28  1  -1.050000  1.530553274  50.089447778  7.629558895
296  28  1  -1.050000  4.493174337  51.890114444000005  1.526693916
297  28  1  -1.050000  2.038176387  51.890114444000005  5.778875098
298  28  2  2.100000  2.412977821  48.918111111  8.268148895
299  28  2  2.100000  4.867979869  48.918111111  4.015967712
300  28  2  2.100000  3.498926902  52.519444444  6.060334434
301  28  2  2.100000  1.043928951  52.519444444  1.80815325
302  28  2  2.100000  3.498926902  50.718777778  1.971600989
303  28  2  2.100000  1.043928951  50.718777778  6.223782173
304  29  1  -1.050000  3.387104013  49.54744111  9.392503916
305  29  1  -1.050000  0.932106061  49.54744111  13.644685099
306  29  1  -1.050000  3.985551224  53.148774443  13.158957712
307  29  1  -1.050000  1.530553274  53.148774443  8.906776529
308  29  1  -1.050000  4.493174337  51.348107778  15.009641509000001
309  29  1  -1.050000  2.038176387  51.348107778  10.757460326
310  29  1  -1.050000  3.387104013  53.69078111  15.648231509
311  29  1  -1.050000  0.932106061  53.69078111  11.396050325000001
312  29  1  -1.050000  3.985551224  50.089447778  11.881777712
313  29  1  -1.050000  1.530553274  50.089447778  16.133958895
314  29  1  -1.050000  4.493174337  51.890114444000005  10.031093916
315  29  1  -1.050000  2.038176387  51.890114444000005  14.283275098
316  29  2  2.100000  2.412977821  48.918111111  16.772548895
317  29  2  2.100000  4.867979869  48.918111111  12.520367712
318  29  2  2.100000  3.498926902  52.519444444  14.564734434
319  29  2  2.100000  1.043928951  52.519444444  10.31255325
320  29  2  2.100000  3.498926902  50.718777778  10.476000989000001
321  29  2  2.100000  1.043928951  50.718777778  14.728182173
322  30  1  -1.050000  3.387104013  49.54744111  17.896903916
323  30  1  -1.050000  0.932106061  49.54744111  22.149085099
324  30  1  -1.050000  3.985551224  53.148774443  21.663357712
325  30  1  -1.050000  1.530553274  53.148774443  17.411176529000002
326  30  1  -1.050000  4.493174337  51.348107778  23.514041509000002
327  30  1  -1.050000  2.038176387  51.348107778  19.261860326
328  30  3  -0.950000  3.387104013  53.69078111  24.152631509000003
329  30  1  -1.050000  0.932106061  53.69078111  19.900450325
330  30  1  -1.050000  3.985551224  50.089447778  20.386177712000002
331  30  3  -0.950000  1.530553274  50.089447778  24.638358895
332  30  1  -1.050000  4.493174337  51.890114444000005  18.535493916
333  30  1  -1.050000  2.038176387  51.890114444000005  22.787675098
334  30  2  2.100000  4.867979869  48.918111111  21.024767712
335  30  2  2.100000  3.498926902  52.519444444  23.069134434
336  30  2  2.100000  1.043928951  52.519444444  18.81695325
337  30  2  2.100000  3.498926902  50.718777778  18.980400989
338  30  2  2.100000  1.043928951  50.718777778  23.232582173
339  31  1  -1.050000  8.297104013  0.92944111  0.888103916
340  31  1  -1.050000  5.842106061  0.92944111  5.140285099
341  31  1  -1.050000  8.895551224  4.530774443  4.654557712
342  31  1  -1.050000  6.440553274  4.530774443  0.402376529
343  31  1  -1.050000  9.403174337  2.730107778  6.505241509
344  31  1  -1.050000  6.948176387  2.730107778  2.253060326
345  31  1  -1.050000  8.297104013  5.07278111  7.143831509
346  31  1  -1.050000  5.842106061  5.07278111  2.891650325
347  31  1  -1.050000  8.895551224  1.471447778  3.377377712
348  31  1  -1.050000  6.440553274  1.471447778  7.629558895
349  31  1  -1.050000  9.403174337  3.272114444  1.526693916
350  31  1  -1.050000  6.948176387  3.272114444  5.778875098
351  31  2  2.100000  7.322977821  0.300111111  8.268148895
352  31  2  2.100000  9.777979869  0.300111111  4.015967712
353  31  2  2.100000  8.408926902000001  3.901444444  6.060334434
354  31  2  2.100000  5.953928951  3.901444444  1.80815325
355  31  2  2.100000  8.408926902000001  2.100777778  1.971600989
356  31  2  2.100000  5.953928951  2.100777778  6.223782173
357  32  1  -1.050000  8.297104013  0.92944111  9.392503916
358  32  1  -1.050000  5.842106061  0.92944111  13.644685099
359  32  1  -1.050000  8.895551224  4.530774443  13.158957712
360  32  1  -1.050000  6.440553274  4.530774443  8.906776529
361  32  1  -1.050000  9.403174337  2.730107778  15.009641509000001
362  32  1  -1.050000  6.948176387  2.730107778  10.757460326
363  32  1  -1.050000  8.297104013  5.07278111  15.648231509
364  32  1  -1.050000  5.842106061  5.07278111  11.396050325000001
365  32  1  -1.050000  8.895551224  1.471447778  11.881777712
366  32  1  -1.050000  6.440553274  1.471447778  16.133958895
367  32  1  -1.050000  9.403174337  3.272114444  10.031093916
368  32  1  -1.050000  6.948176387  3.272114444  14.283275098
369  32  2  2.100000  7.322977821  0.300111111  16.772548895
370  32  2  2.100000  9.777979869  0.300111111  12.520367712
371  32  2  2.100000  8.408926902000001  3.901444444  14.564734434
372  32  2  2.100000  5.953928951  3.901444444  10.31255325
373  32  2  2.100000  8.408926902000001  2.100777778  10.476000989000001
374  32  2  2.100000  5.953928951  2.100777778  14.728182173
375  33  1  -1.050000  8.297104013  0.92944111  17.896903916
376  33  1  -1.050000  5.842106061  0.92944111  22.149085099
377  33  1  -1.050000  8.895551224  4.530774443  21.663357712
378  33  1  -1.050000  6.440553274  4.530774443  17.411176529000002
379  33  1  -1.050000  9.403174337  2.730107778  23.514041509000002
380  33  1  -1.050000  6.948176387  2.730107778  19.261860326
381  33  3  -0.950000  8.297104013  5.07278111  24.152631509000003
382  33  1  -1.050000  5.842106061  5.07278111  19.900450325
383  33  1  -1.050000  8.895551224  1.471447778  20.386177712000002
384  33  3  -0.950000  6.440553274  1.471447778  24.638358895
385  33  1  -1.050000  9.403174337  3.272114444  18.535493916
386  33  1  -1.050000  6.948176387  3.272114444  22.787675098
387  33  2  2.100000  9.777979869  0.300111111  21.024767712
388  33  2  2.100000  8.408926902000001  3.901444444  23.069134434
389  33  2  2.100000  5.953928951  3.901444444  18.81695325
390  33  2  2.100000  8.408926902000001  2.100777778  18.980400989
391  33  2  2.100000  5.953928951  2.100777778  23.232582173
392  34  1  -1.050000  8.297104013  6.33144111  0.888103916
393  34  1  -1.050000  5.842106061  6.33144111  5.140285099
394  34  1  -1.050000  8.895551224  9.932774443  4.654557712
395  34  1  -1.050000  6.440553274  9.932774443  0.402376529
396  34  1  -1.050000  9.403174337  8.132107778  6.505241509
397  34  1  -1.050000  6.948176387  8.132107778  2.253060326
398  34  1  -1.050000  8.297104013  10.47478111  7.143831509
399  34  1  -1.050000  5.842106061  10.47478111  2.891650325
400  34  1  -1.050000  8.895551224  6.873447778  3.377377712
401  34  1  -1.050000  6.440553274  6.873447778  7.629558895
402  34  1  -1.050000  9.403174337  8.674114444  1.526693916
403  34  1  -1.050000  6.948176387  8.674114444  5.778875098
404  34  2  2.100000  7.322977821  5.702111111  8.268148895
405  34  2  2.100000  9.777979869  5.702111111  4.015967712
406  34  2  2.100000  8.408926902000001  9.303444444  6.060334434
407  34  2  2.100000  5.953928951  9.303444444  1.80815325
408  34  2  2.100000  8.408926902000001  7.5027777780000005  1.971600989
409  34  2  2.100000  5.953928951  7.5027777780000005  6.223782173
410  35  1  -1.050000  8.297104013  6.33144111  9.392503916
411  35  1  -1.050000  5.842106061  6.33144111  13.644685099
412  35  3  -0.950000  8.895551224  9.932774443  13.158957712
413  35  1  -1.050000  6.440553274  9.932774443  8.906776529
414  35  1  -1.050000  9.403174337  8.132107778  15.009641509000001
415  35  1  -1.050000  6.948176387  8.132107778  10.757460326
416  35  3  -0.950000  8.297104013  10.47478111  15.648231509
417  35  3  -0.950000  5.842106061  10.47478111  11.396050325000001
418  35  1  -1.050000  8.895551224  6.873447778  11.881777712
419  35  1  -1.050000  6.440553274  6.873447778  16.133958895
420  35  1  -1.050000  9.403174337  8.674114444  10.031093916
421  35  1  -1.050000  6.948176387  8.674114444  14.283275098
422  35  2  2.100000  7.322977821  5.702111111  16.772548895
423  35  2  2.100000  9.777979869  5.702111111  12.520367712
424  35  2  2.100000  8.408926902000001  9.303444444  14.564734434
425  35  2  2.100000  5.953928951  9.303444444  10.31255325
426  35  2  2.100000  8.408926902000001  7.5027777780000005  10.476000989000001
427  35  2  2.100000  5.953928951  7.5027777780000005  14.728182173
428  36  1  -1.050000  8.297104013  6.33144111  17.896903916
429  36  1  -1.050000  5.842106061  6.33144111  22.149085099
430  36  3  -0.950000  8.895551224  9.932774443  21.663357712
431  36  3  -0.950000  6.440553274  9.932774443  17.411176529000002
432  36  1  -1.050000  9.403174337  8.132107778  23.514041509000002
433  36  1  -1.050000  6.948176387  8.132107778  19.261860326
434  36  3  -0.950000  8.297104013  10.47478111  24.152631509000003
435  36  3  -0.950000  5.842106061  10.47478111  19.900450325
436  36  1  -1.050000  8.895551224  6.873447778  20.386177712000002
437  36  3  -0.950000  6.440553274  6.873447778  24.638358895
438  36  1  -1.050000  9.403174337  8.674114444  18.535493916
439  36  1  -1.050000  6.948176387  8.674114444  22.787675098
440  36  2  2.100000  9.777979869  5.702111111  21.024767712
441  36  2  2.100000  8.408926902000001  9.303444444  23.069134434
442  36  2  2.100000  5.953928951  9.303444444  18.81695325
443  36  2  2.100000  8.408926902000001  7.5027777780000005  18.980400989
444  36  2  2.100000  5.953928951  7.5027777780000005  23.232582173
445  37  1  -1.050000  8.297104013  11.733441110000001  0.888103916
446  37  1  -1.050000  5.842106061  11.733441110000001  5.140285099
447  37  1  -1.050000  8.895551224  15.334774443  4.654557712
448  37  1  -1.050000  6.440553274  15.334774443  0.402376529
449  37  1  -1.050000  9.403174337  13.534107778  6.505241509
450  37  1  -1.050000  6.948176387  13.534107778  2.253060326
451  37  1  -1.050000  8.297104013  15.87678111  7.143831509
452  37  1  -1.050000  5.842106061  15.87678111  2.891650325
453  37  1  -1.050000  8.895551224  12.275447778  3.377377712
454  37  1  -1.050000  6.440553274  12.275447778  7.629558895
455  37  1  -1.050000  9.403174337  14.076114444  1.526693916
456  37  1  -1.050000  6.948176387  14.076114444  5.778875098
457  37  2  2.100000  7.322977821  11.104111111  8.268148895
458  37  2  2.100000  9.777979869  11.104111111  4.015967712
459  37  2  2.100000  8.408926902000001  14.705444444000001  6.060334434
460  37  2  2.100000  5.953928951  14.705444444000001  1.80815325
461  37  2  2.100000  8.408926902000001  12.904777778  1.971600989
462  37  2  2.100000  5.953928951  12.904777778  6.223782173
463  38  3  -0.950000  8.297104013  11.733441110000001  9.392503916
464  38  3  -0.950000  6.440553274  15.334774443  8.906776529
465  40  1  -1.050000  8.297104013  17.13544111  0.888103916
466  40  1  -1.050000  5.842106061  17.13544111  5.140285099
467  40  1  -1.050000  8.895551224  20.736774443  4.654557712
468  40  1  -1.050000  6.440553274  20.736774443  0.402376529
469  40  1  -1.050000  9.403174337  18.936107778  6.505241509
470  40  1  -1.050000  6.948176387  18.936107778  2.253060326
471  40  1  -1.050000  8.297104013  21.27878111  7.143831509
472  40  1  -1.050000  5.842106061  21.27878111  2.891650325
473  40  1  -1.050000  8.895551224  17.677447778  3.377377712
474  40  1  -1.050000  6.440553274  17.677447778  7.629558895
475  40  1  -1.050000  9.403174337  19.478114444  1.526693916
476  40  1  -1.050000  6.948176387  19.478114444  5.778875098