LAMMPS data file. msi2lmp v3.9.9 / 05 Nov 2018 / CGCMM for Methane_hydrate

    178 atoms
    124 bonds
     94 angles
      0 dihedrals
      0 impropers

   4 atom types
   2 bond types
   2 angle types

    -1.030429862    10.857070138 xlo xhi
    -0.971474038    10.916025962 ylo yhi
    -0.971473601    10.916026399 zlo zhi

Masses

   1  15.999400 # O
   2  12.011150 # C
   3   1.007970 # H1
   4   1.007970 # H2

Pair Coeffs # lj/cut/coul/long

   1   0.21084   3.1668 # o*
   2   0.066   3.5000 # c
   3   0.0000000000   0.0000000000 # h*
   4   0.030   0.030 # h

Bond Coeffs # harmonic

   1   540.6336     0.9572 # o*-h*
   2   340.0000     1.0900 # c-h

Angle Coeffs # harmonic

   1    50.0000   104.52 # h*-o*-h*
   2    33.000   107.800 # h-c-h

Atoms # full

      1      1   1 -1.1794     0.000000000     5.943750000     2.971875000   0   0   0 # o*
      2      1   1 -1.1794     0.000000000     5.943750000     8.915625000   0   0   0 # o*
      3      1   1 -1.1794     2.971875000     0.000000000     5.943750000   0   0   0 # o*
      4      1   1 -1.1794     8.915625000     0.000000000     5.943750000   0   0   0 # o*
      5      1   1 -1.1794     5.943750000     2.971875000     0.000000000   0   0   0 # o*
      6      1   1 -1.1794     5.943750000     8.915625000     0.000000000   0   0   0 # o*
      7      1   1 -1.1794     2.195740077     2.195740077     2.195740077   0   0   0 # o*
      8      1   1 -1.1794     9.691759923     9.691759923     2.195740077   0   0   0 # o*
      9      1   1 -1.1794     9.691759923     2.195740077     9.691759923   0   0   0 # o*
     10      1   1 -1.1794     2.195740077     9.691759923     9.691759923   0   0   0 # o*
     11      1   1 -1.1794     8.139490077     8.139490077     3.748009923   0   0   0 # o*
     12      1   1 -1.1794     3.748009923     3.748009923     3.748009923   0   0   0 # o*
     13      1   1 -1.1794     8.139490077     3.748009923     8.139490077   0   0   0 # o*
     14      1   1 -1.1794     3.748009923     8.139490077     8.139490077   0   0   0 # o*
     15      1   1 -1.1794     9.691759923     9.691759923     9.691759923   0   0   0 # o*
     16      1   1 -1.1794     2.195740077     2.195740077     9.691759923   0   0   0 # o*
     17      1   1 -1.1794     2.195740077     9.691759923     2.195740077   0   0   0 # o*
     18      1   1 -1.1794     9.691759923     2.195740077     2.195740077   0   0   0 # o*
     19      1   1 -1.1794     3.748009923     3.748009923     8.139490077   0   0   0 # o*
     20      1   1 -1.1794     8.139490077     8.139490077     8.139490077   0   0   0 # o*
     21      1   1 -1.1794     3.748009923     8.139490077     3.748009923   0   0   0 # o*
     22      1   1 -1.1794     8.139490077     3.748009923     3.748009923   0   0   0 # o*
     23      1   1 -1.1794     0.000000000     3.679775474     1.385606967   0   0   0 # o*
     24      1   1 -1.1794     0.000000000     8.207724526     1.385606967   0   0   0 # o*
     25      1   1 -1.1794     0.000000000     3.679775474    10.501893033   0   0   0 # o*
     26      1   1 -1.1794     0.000000000     8.207724526    10.501893033   0   0   0 # o*
     27      1   1 -1.1794     1.385606967     0.000000000     3.679775474   0   0   0 # o*
     28      1   1 -1.1794     1.385606967     0.000000000     8.207724526   0   0   0 # o*
     29      1   1 -1.1794    10.501893033     0.000000000     3.679775474   0   0   0 # o*
     30      1   1 -1.1794    10.501893033     0.000000000     8.207724526   0   0   0 # o*
     31      1   1 -1.1794     3.679775474     1.385606967     0.000000000   0   0   0 # o*
     32      1   1 -1.1794     8.207724526     1.385606967     0.000000000   0   0   0 # o*
     33      1   1 -1.1794     3.679775474    10.501893033     0.000000000   0   0   0 # o*
     34      1   1 -1.1794     8.207724526    10.501893033     0.000000000   0   0   0 # o*
     35      1   1 -1.1794     9.623525474     5.943750000     4.558143033   0   0   0 # o*
     36      1   1 -1.1794     2.263974526     5.943750000     4.558143033   0   0   0 # o*
     37      1   1 -1.1794     9.623525474     5.943750000     7.329356967   0   0   0 # o*
     38      1   1 -1.1794     2.263974526     5.943750000     7.329356967   0   0   0 # o*
     39      1   1 -1.1794     5.943750000     7.329356967     2.263974526   0   0   0 # o*
     40      1   1 -1.1794     5.943750000     7.329356967     9.623525474   0   0   0 # o*
     41      1   1 -1.1794     5.943750000     4.558143033     2.263974526   0   0   0 # o*
     42      1   1 -1.1794     5.943750000     4.558143033     9.623525474   0   0   0 # o*
     43      1   1 -1.1794     7.329356967     9.623525474     5.943750000   0   0   0 # o*
     44      1   1 -1.1794     7.329356967     2.263974526     5.943750000   0   0   0 # o*
     45      1   1 -1.1794     4.558143033     9.623525474     5.943750000   0   0   0 # o*
     46      1   1 -1.1794     4.558143033     2.263974526     5.943750000   0   0   0 # o*
     47      1   2 -0.240     0.000000000     0.000000000     0.000000000   0   0   0 # c
     48      1   2 -0.240     5.943750000     5.943750000     5.943750000   0   0   0 # c
     49      1   2 -0.240     0.000000000     2.971875000     5.943750000   0   0   0 # c
     50      1   2 -0.240     0.000000000     8.915625000     5.943750000   0   0   0 # c
     51      1   2 -0.240     5.943750000     0.000000000     2.971875000   0   0   0 # c
     52      1   2 -0.240     5.943750000     0.000000000     8.915625000   0   0   0 # c
     53      1   2 -0.240     2.971875000     5.943750000     0.000000000   0   0   0 # c
     54      1   2 -0.240     8.915625000     5.943750000     0.000000000   0   0   0 # c
     55      1   3  0.5897     0.009655996     6.746382472     2.401692392   0   0   0 # h*
     56      1   3  0.5897     0.819205559     6.078805377     3.500476598   0   0   0 # h*
     57      1   3  0.5897     0.281067217     6.808436253     9.277970585   0   0   0 # h*
     58      1   3  0.5897     0.723234285     5.812772518     8.254920411   0   0   0 # h*
     59      1   3  0.5897     2.409366107     0.112795381     6.741859468   0   0   0 # h*
     60      1   3  0.5897     3.506404441     0.826096463     5.955505427   0   0   0 # h*
     61      1   3  0.5897     8.353116814     0.798109822     6.056545975   0   0   0 # h*
     62      1   3  0.5897     9.450152579     0.011752853     6.769847749   0   0   0 # h*
     63      1   3  0.5897     6.224822540     3.334226965     0.864682661   0   0   0 # h*
     64      1   3  0.5897     6.666984767     2.311171604    -0.130978770   0   0   0 # h*
     65      1   3  0.5897     5.953408541     8.345441349     0.802631695   0   0   0 # h*
     66      1   3  0.5897     6.762955491     9.444227246     0.135053604   0   0   0 # h*
     67      1   3  0.5897     1.930743145     1.402780623     2.721734745   0   0   0 # h*
     68      1   3  0.5897     2.708045884     2.708071567     2.862811181   0   0   0 # h*
     69      1   3  0.5897     9.978388217    10.516780833     2.648500651   0   0   0 # h*
     70      1   3  0.5897     9.116717610    10.043813583     1.480932541   0   0   0 # h*
     71      1   3  0.5897     9.154280580     2.782308057     9.104937951   0   0   0 # h*
     72      1   3  0.5897    10.452870852     2.782331950     9.905925825   0   0   0 # h*
     73      1   3  0.5897     1.433514793     9.188864663    10.050449479   0   0   0 # h*
     74      1   3  0.5897     2.654073084     9.949780408    10.533969613   0   0   0 # h*
     75      1   3  0.5897     8.055452432     8.606915423     4.601004933   0   0   0 # h*
     76      1   3  0.5897     8.845451914     8.644309717     3.294148901   0   0   0 # h*
     77      1   3  0.5897     4.002365412     3.184787887     4.519697224   0   0   0 # h*
     78      1   3  0.5897     4.639981262     3.970835872     3.410371678   0   0   0 # h*
     79      1   3  0.5897     7.353136054     4.110944533     8.609681043   0   0   0 # h*
     80      1   3  0.5897     8.567214102     4.572992043     7.810197586   0   0   0 # h*
     81      1   3  0.5897     3.235612913     8.731546119     8.742286787   0   0   0 # h*
     82      1   3  0.5897     4.491456082     7.869471428     8.725498551   0   0   0 # h*
     83      1   3  0.5897     9.946137035    10.463442074     9.128541140   0   0   0 # h*
     84      1   3  0.5897    10.583720684     9.354096011     9.914591667   0   0   0 # h*
     85      1   3  0.5897     1.409384912     2.665929397    10.054694346   0   0   0 # h*
     86      1   3  0.5897     2.623463880     1.866446971    10.516741828   0   0   0 # h*
     87      1   3  0.5897     2.111702893    10.544754546     2.663166279   0   0   0 # h*
     88      1   3  0.5897     2.901701539     9.237897954     2.700559574   0   0   0 # h*
     89      1   3  0.5897     9.179360956     2.798535498     2.787795879   0   0   0 # h*
     90      1   3  0.5897    10.435205196     2.781749953     1.925722327   0   0   0 # h*
     91      1   3  0.5897     3.210530694     3.161188036     8.726058251   0   0   0 # h*
     92      1   3  0.5897     4.509120473     3.962176686     8.726082090   0   0   0 # h*
     93      1   3  0.5897     7.874493569     8.665483643     7.346529751   0   0   0 # h*
     94      1   3  0.5897     8.651795176     8.806562623     8.651820678   0   0   0 # h*
     95      1   3  0.5897     4.034636510     8.592250847     4.573031263   0   0   0 # h*
     96      1   3  0.5897     3.172969289     7.424680816     4.100062710   0   0   0 # h*
     97      1   3  0.5897     7.377268960     4.106704678     3.245110606   0   0   0 # h*
     98      1   3  0.5897     8.597826499     4.590217699     4.006030652   0   0   0 # h*
     99      1   3  0.5897     0.035498353     4.459067398     1.989456824   0   0   0 # h*
    100      1   3  0.5897     0.798485194     3.179090422     1.671755541   0   0   0 # h*
    101      1   3  0.5897    -0.758631085     8.731841600     1.737351829   0   0   0 # h*
    102      1   3  0.5897     0.759372249     8.779825915     1.670375517   0   0   0 # h*
    103      1   3  0.5897    -0.044368285     3.851889775    -0.418036378   0   0   1 # h*
    104      1   3  0.5897    -0.018559048     4.578141299    10.109945657   0   0   0 # h*
    105      1   3  0.5897     0.205529100     8.274437888    -0.417514056   0   0   1 # h*
    106      1   3  0.5897    -0.779450883     7.629396966    10.587941654   0   0   0 # h*
    107      1   3  0.5897     0.417726270    -0.094659097     3.821133669   0   0   0 # h*
    108      1   3  0.5897     1.754569640    -0.099428347     4.581968117   0   0   0 # h*
    109      1   3  0.5897     1.716836116     0.746753734     8.758036302   0   0   0 # h*
    110      1   3  0.5897     1.714706078    -0.771043106     8.726949977   0   0   0 # h*
    111      1   3  0.5897     9.916807738     0.006666596     4.472479496   0   0   0 # h*
    112      1   3  0.5897    10.184337574     0.799263770     3.201734982   0   0   0 # h*
    113      1   3  0.5897    10.305637924     0.798873068     8.749124822   0   0   0 # h*
    114      1   3  0.5897    -0.406572432     0.066494357     8.116677939   1   0   0 # h*
    115      1   3  0.5897     3.181485795     1.660080135     0.803227408   0   0   0 # h*
    116      1   3  0.5897     4.465409592     1.972311058     0.037997081   0   0   0 # h*
    117      1   3  0.5897     8.780854235     1.614854890     0.769515183   0   0   0 # h*
    118      1   3  0.5897     8.792040919     1.653488014    -0.747865441   0   0   0 # h*
    119      1   3  0.5897     3.869586050    -0.435122833     0.104346536   0   1   0 # h*
    120      1   3  0.5897     4.546333511    10.068457885     0.112136072   0   0   0 # h*
    121      1   3  0.5897     8.122284000    -0.409241510    -0.083426303   0   1   0 # h*
    122      1   3  0.5897     8.687717298    10.276857126    -0.827363068   0   0   0 # h*
    123      1   3  0.5897     9.813335303     6.048097888     5.508627017   0   0   0 # h*
    124      1   3  0.5897    10.490083690     6.055884531     4.124708338   0   0   0 # h*
    125      1   3  0.5897     2.178531480     5.860323783     5.534508255   0   0   0 # h*
    126      1   3  0.5897     2.743967049     5.116386773     4.333107897   0   0   0 # h*
    127      1   3  0.5897     9.125237991     6.746978044     7.603832576   0   0   0 # h*
    128      1   3  0.5897    10.409159749     5.981743393     7.916060850   0   0   0 # h*
    129      1   3  0.5897     2.837102165     6.713266555     7.558605487   0   0   0 # h*
    130      1   3  0.5897     2.848292607     5.195886248     7.597238837   0   0   0 # h*
    131      1   3  0.5897     5.185121534     7.681105690     2.788092583   0   0   0 # h*
    132      1   3  0.5897     6.703124396     7.614122069     2.836074840   0   0   0 # h*
    133      1   3  0.5897     5.979249948     7.933206192    10.402817758   0   0   0 # h*
    134      1   3  0.5897     6.742237281     7.615502034     9.122841802   0   0   0 # h*
    135      1   3  0.5897     6.149263658     5.526241725     2.330661133   0   0   0 # h*
    136      1   3  0.5897     5.164278030     4.644160738     1.685680634   0   0   0 # h*
    137      1   3  0.5897     5.899383424     5.525712837     9.795644298   0   0   0 # h*
    138      1   3  0.5897     5.925192272     4.166191825    10.521889481   0   0   0 # h*
    139      1   3  0.5897     6.361476440     9.764884081     5.849089973   0   0   0 # h*
    140      1   3  0.5897     7.698320203    10.525717913     5.844321752   0   0   0 # h*
    141      1   3  0.5897     7.660588245     2.814285489     6.690503365   0   0   0 # h*
    142      1   3  0.5897     7.658457723     2.783198570     5.172706468   0   0   0 # h*
    143      1   3  0.5897     3.973056413    10.416228564     5.950415631   0   0   0 # h*
    144      1   3  0.5897     4.240587693     9.145484792     6.743013697   0   0   0 # h*
    145      1   3  0.5897     4.361890235     2.805372236     6.742625443   0   0   0 # h*
    146      1   3  0.5897     5.537177873     2.172927953     6.010241868   0   0   0 # h*
    147      1   4  0.0600    -0.745201502    -0.814046759     0.016261378   0   0   0 # h
    148      1   4  0.0600    -0.084592081     0.569828804    -0.941858220   0   0   0 # h
    149      1   4  0.0600    -0.176295512     0.675601447     0.856468200   0   0   0 # h
    150      1   4  0.0600     1.015742030    -0.428748279     0.087163175   0   0   0 # h
    151      1   4  0.0600     5.859159071     5.001891502     6.513578509   0   0   0 # h
    152      1   4  0.0600     5.198549051     5.960010547     5.129702736   0   0   0 # h
    153      1   4  0.0600     5.767452818     6.800217753     6.619351562   0   0   0 # h
    154      1   4  0.0600     6.959492124     6.030914810     5.515002241   0   0   0 # h
    155      1   4  0.0600    -0.174556943     1.884648787     5.850532601   0   0   0 # h
    156      1   4  0.0600     0.294068334     3.384398131     4.961552993   0   0   0 # h
    157      1   4  0.0600    -0.927786506     3.467088605     6.284465410   0   0   0 # h
    158      1   4  0.0600     0.805656731     3.155071745     6.678157239   0   0   0 # h
    159      1   4  0.0600     0.166144216     7.846208067     6.166563782   0   0   0 # h
    160      1   4  0.0600     0.375831962     9.141134119     4.928951619   0   0   0 # h
    161      1   4  0.0600    10.806309247     9.141770860     5.990596033  -1   0   0 # h
    162      1   4  0.0600     0.540023497     9.536364985     6.681625279   0   0   0 # h
    163      1   4  0.0600     6.319580723    10.872701009     3.197383463   0  -1   0 # h
    164      1   4  0.0600     6.109894226     0.222814146     1.902458135   0   0   0 # h
    165      1   4  0.0600     4.862559400     0.046847341     3.198021237   0   0   0 # h
    166      1   4  0.0600     6.483774703     0.737874240     3.592615181   0   0   0 # h
    167      1   4  0.0600     6.237816894    10.905302539     9.328148118   0  -1   0 # h
    168      1   4  0.0600     5.769191464    -0.093217709     7.828399074   0   0   0 # h
    169      1   4  0.0600     5.015964893     0.340717550     9.410839731   0   0   0 # h
    170      1   4  0.0600     6.749408663     0.734405487     9.098820216   0   0   0 # h
    171      1   4  0.0600     2.942510937     4.875259682     0.280016013   0   0   0 # h
    172      1   4  0.0600     2.502571734     6.080030907    10.896712736   0   0  -1 # h
    173      1   4  0.0600     2.420137384     6.539334209     0.751319926   0   0   0 # h
    174      1   4  0.0600     4.018429571     6.297443847    -0.041123126   0   0   0 # h
    175      1   4  0.0600     8.446314255     4.952967018     0.136286228   0   0   0 # h
    176      1   4  0.0600     8.886262435     6.223760790    10.819008253   0   0  -1 # h
    177      1   4  0.0600     8.363893214     6.695076977     0.595580754   0   0   0 # h
    178      1   4  0.0600     9.962179362     5.902620624     0.353693640   0   0   0 # h

Bonds

     1   1      1     55
     2   1      1     56
     3   1      2     57
     4   1      2     58
     5   1      3     59
     6   1      3     60
     7   1      4     61
     8   1      4     62
     9   1      5     63
    10   1      5     64
    11   1      6     65
    12   1      6     66
    13   1      7     67
    14   1      7     68
    15   1      8     69
    16   1      8     70
    17   1      9     71
    18   1      9     72
    19   1     10     73
    20   1     10     74
    21   1     11     75
    22   1     11     76
    23   1     12     77
    24   1     12     78
    25   1     13     79
    26   1     13     80
    27   1     14     81
    28   1     14     82
    29   1     15     83
    30   1     15     84
    31   1     16     85
    32   1     16     86
    33   1     17     87
    34   1     17     88
    35   1     18     89
    36   1     18     90
    37   1     19     91
    38   1     19     92
    39   1     20     93
    40   1     20     94
    41   1     21     95
    42   1     21     96
    43   1     22     97
    44   1     22     98
    45   1     23     99
    46   1     23    100
    47   1     24    101
    48   1     24    102
    49   1     25    103
    50   1     25    104
    51   1     26    105
    52   1     26    106
    53   1     27    107
    54   1     27    108
    55   1     28    109
    56   1     28    110
    57   1     29    111
    58   1     29    112
    59   1     30    113
    60   1     30    114
    61   1     31    115
    62   1     31    116
    63   1     32    117
    64   1     32    118
    65   1     33    119
    66   1     33    120
    67   1     34    121
    68   1     34    122
    69   1     35    123
    70   1     35    124
    71   1     36    125
    72   1     36    126
    73   1     37    127
    74   1     37    128
    75   1     38    129
    76   1     38    130
    77   1     39    131
    78   1     39    132
    79   1     40    133
    80   1     40    134
    81   1     41    135
    82   1     41    136
    83   1     42    137
    84   1     42    138
    85   1     43    139
    86   1     43    140
    87   1     44    141
    88   1     44    142
    89   1     45    143
    90   1     45    144
    91   1     46    145
    92   1     46    146
    93   2     47    147
    94   2     47    148
    95   2     47    149
    96   2     47    150
    97   2     48    151
    98   2     48    152
    99   2     48    153
   100   2     48    154
   101   2     49    155
   102   2     49    156
   103   2     49    157
   104   2     49    158
   105   2     50    159
   106   2     50    160
   107   2     50    161
   108   2     50    162
   109   2     51    163
   110   2     51    164
   111   2     51    165
   112   2     51    166
   113   2     52    167
   114   2     52    168
   115   2     52    169
   116   2     52    170
   117   2     53    171
   118   2     53    172
   119   2     53    173
   120   2     53    174
   121   2     54    175
   122   2     54    176
   123   2     54    177
   124   2     54    178

Angles

     1   1     55      1     56
     2   1     57      2     58
     3   1     59      3     60
     4   1     61      4     62
     5   1     63      5     64
     6   1     65      6     66
     7   1     67      7     68
     8   1     69      8     70
     9   1     71      9     72
    10   1     73     10     74
    11   1     75     11     76
    12   1     77     12     78
    13   1     79     13     80
    14   1     81     14     82
    15   1     83     15     84
    16   1     85     16     86
    17   1     87     17     88
    18   1     89     18     90
    19   1     91     19     92
    20   1     93     20     94
    21   1     95     21     96
    22   1     97     22     98
    23   1     99     23    100
    24   1    101     24    102
    25   1    103     25    104
    26   1    105     26    106
    27   1    107     27    108
    28   1    109     28    110
    29   1    111     29    112
    30   1    113     30    114
    31   1    115     31    116
    32   1    117     32    118
    33   1    119     33    120
    34   1    121     34    122
    35   1    123     35    124
    36   1    125     36    126
    37   1    127     37    128
    38   1    129     38    130
    39   1    131     39    132
    40   1    133     40    134
    41   1    135     41    136
    42   1    137     42    138
    43   1    139     43    140
    44   1    141     44    142
    45   1    143     45    144
    46   1    145     46    146
    47   2    147     47    148
    48   2    147     47    149
    49   2    147     47    150
    50   2    148     47    149
    51   2    148     47    150
    52   2    149     47    150
    53   2    151     48    152
    54   2    151     48    153
    55   2    151     48    154
    56   2    152     48    153
    57   2    152     48    154
    58   2    153     48    154
    59   2    155     49    156
    60   2    155     49    157
    61   2    155     49    158
    62   2    156     49    157
    63   2    156     49    158
    64   2    157     49    158
    65   2    159     50    160
    66   2    159     50    161
    67   2    159     50    162
    68   2    160     50    161
    69   2    160     50    162
    70   2    161     50    162
    71   2    163     51    164
    72   2    163     51    165
    73   2    163     51    166
    74   2    164     51    165
    75   2    164     51    166
    76   2    165     51    166
    77   2    167     52    168
    78   2    167     52    169
    79   2    167     52    170
    80   2    168     52    169
    81   2    168     52    170
    82   2    169     52    170
    83   2    171     53    172
    84   2    171     53    173
    85   2    171     53    174
    86   2    172     53    173
    87   2    172     53    174
    88   2    173     53    174
    89   2    175     54    176
    90   2    175     54    177
    91   2    175     54    178
    92   2    176     54    177
    93   2    176     54    178
    94   2    177     54    178

