ITEM: TIMESTEP
0
ITEM: NUMBER OF ATOMS
17
ITEM: BOX BOUNDS pp pp pp
-3.87301	46.12699
-0.5867	49.4133
-0.95115	49.04885
ITEM: ATOMS id mol element type x y z 
1	1	C	1	1.000	1.00000	0.00000	
2	1	C	2	-0.337	1.00000	0.00000	
3	1	N	3	-1.134	1.00000	1.11526	
4	1	C	4	-0.676	1.05222	2.48177	
5	1	C	5	-1.849	0.50965	3.27219	
6	1	C	6	-3.061	0.95484	2.46821	
7	1	C	7	-2.535	1.02328	1.05262	
8	1	O	8	-3.232	1.08812	0.05117	
9	1	H	9	1.539	0.99881	-0.94118	
10	1	H	10	1.593	1.00000	0.90708	
11	1	H	11	-0.871	0.99880	-0.95115	
12	1	H	12	-0.475	2.09918	2.73925	
13	1	H	13	0.222	0.44931	2.64132	
14	1	H	14	-1.868	0.86334	4.30672	
15	1	H	15	-1.804	-0.58670	3.28942	
16	1	H	16	-3.408	1.94658	2.77089	
17	1	H	17	-3.873	0.22675	2.53818	
