LAMMPS data file. msi2lmp v3.9.9 / 05 Nov 2018 / CGCMM for sio2_1nm

     84 atoms
     88 bonds
    140 angles
    192 dihedrals
      0 impropers

   4 atom types
   3 bond types
   5 angle types
   4 dihedral types

    -6.003750892     6.496477022 xlo xhi
    -5.910361055     6.022433876 ylo yhi
    -5.190721120     5.681468365 zlo zhi

Masses

   1   0.000000 # sz
   2   0.000000 # oz
   3  15.999400 # oh
   4   1.007970 # ho

Pair Coeffs # lj/cut/coul/long

   1   0.0000000000   0.0000000000 # sz
   2   0.0000000000   0.0000000000 # oz
   3   0.1554164124   3.1655200879 # oh
   4   0.0000000000   0.0000000000 # ho

Bond Coeffs # harmonic

   1     0.0000     0.0000 # sz-oz
   2     0.0000     0.0000 # sz-oh
   3   553.9350     1.0000 # oh-ho

Angle Coeffs # harmonic

   1     0.0000     0.0000 # oz-sz-oz
   2     0.0000     0.0000 # oz-sz-oh
   3     0.0000     0.0000 # oh-sz-oh
   4     0.0000     0.0000 # sz-oz-sz
   5     0.0000     0.0000 # sz-oh-ho

Dihedral Coeffs # harmonic

  1     0.0000   0   0 # oz-sz-oz-sz
  2     0.0000   0   0 # oh-sz-oz-sz
  3     0.0000   0   0 # oz-sz-oh-ho
  4     0.0000   0   0 # oh-sz-oh-ho

Atoms # full

      1      1   1  0.600000     2.044366722     1.180315677     0.000000000   0   0   0 # sz
      2      1   1  0.737600     2.207814461    -1.274682273     3.601333333   0   0   0 # sz
      3      1   1  0.668800     0.000000000     2.549364547     1.800666667   0   0   0 # sz
      4      1   1  0.737600     4.252181183     0.094366596     1.800666667   0   0   0 # sz
      5      1   2 -0.300000     0.638590000     1.666940000     0.629330000   0   0   0 # oz
      6      1   3 -0.568800     4.890771183    -0.788057951     0.629330000   0   0   0 # oh
      7      1   3 -0.568800     1.124317387     3.523490739     2.429996667   0   0   0 # oh
      8      1   2 -0.300000     3.127863797     1.068492788     1.171336667   0   0   0 # oz
      9      1   2 -0.300000     3.613591183    -0.788057951     2.972003333   0   0   0 # oz
     10      1   1  0.737600    -2.044366722    -3.729680224    -1.800666667   0   0   0 # sz
     11      1   2 -0.300000    -1.762907387    -0.280434837    -1.171336667   0   0   0 # oz
     12      1   3 -0.568800    -3.127863797     1.068492788    -2.972003333   0   0   0 # oh
     13      1   2 -0.300000    -2.489273797    -2.735432788    -0.629330000   0   0   0 # oz
     14      1   2 -0.300000    -0.638590000    -3.243055901    -2.429996667   0   0   0 # oz
     15      1   3 -0.568800    -1.124317387    -1.386505163    -4.230663333   0   0   0 # oh
     16      1   2 -0.300000     2.489273797    -2.735432788    -1.171336667   0   0   0 # oz
     17      1   2 -0.300000     1.124317387    -1.386505163    -2.972003333   0   0   0 # oz
     18      1   1  0.737600     0.000000000    -2.360631355    -3.601333333   0   0   0 # sz
     19      1   1  0.668800    -2.044366722     1.180315677    -1.800666667   0   0   0 # sz
     20      1   2 -0.300000    -2.489273797     2.174563113    -0.629330000   0   0   0 # oz
     21      1   2 -0.300000    -0.638590000     1.666940000    -2.429996667   0   0   0 # oz
     22      1   1  0.668800     2.207814461    -1.274682273    -1.800666667   0   0   0 # sz
     23      1   1  0.737600     0.000000000     2.549364547    -3.601333333   0   0   0 # sz
     24      1   2 -0.300000     2.489273797     2.174563113    -1.171336667   0   0   0 # oz
     25      1   2 -0.300000     1.124317387     3.523490739    -2.972003333   0   0   0 # oz
     26      1   2 -0.300000     1.762907387    -0.280434837    -0.629330000   0   0   0 # oz
     27      1   3 -0.568800     3.613591183    -0.788057951    -2.429996667   0   0   0 # oh
     28      1   1  0.737600     2.207814461     3.635313628    -1.800666667   0   0   0 # sz
     29      1   3 -0.568800     1.762907387     4.629561064    -0.629330000   0   0   0 # oh
     30      1   3 -0.568800    -1.762907387    -0.280434837     4.230663333   0   0   0 # oh
     31      1   2 -0.300000    -3.127863797     1.068492788     2.429996667   0   0   0 # oz
     32      1   3 -0.568800    -0.638590000    -3.243055901     2.972003333   0   0   0 # oh
     33      1   1  0.600000    -2.207814461    -1.274682273     0.000000000   0   0   0 # sz
     34      1   1  0.737600    -4.252181183     0.094366596     1.800666667   0   0   0 # sz
     35      1   2 -0.300000    -3.613591183    -0.788057951     0.629330000   0   0   0 # oz
     36      1   2 -0.300000    -1.124317387    -1.386505163     1.171336667   0   0   0 # oz
     37      1   2 -0.300000     1.124317387    -1.386505163     2.429996667   0   0   0 # oz
     38      1   1  0.737600     2.044366722    -3.729680224     0.000000000   0   0   0 # sz
     39      1   1  0.668800     0.000000000    -2.360631355     1.800666667   0   0   0 # sz
     40      1   2 -0.300000     0.638590000    -3.243055901     0.629330000   0   0   0 # oz
     41      1   1  0.737600    -2.207814461     3.635313628     0.000000000   0   0   0 # sz
     42      1   1  0.737600    -2.044366722     1.180315677     3.601333333   0   0   0 # sz
     43      1   2 -0.300000    -1.124317387     3.523490739     1.171336667   0   0   0 # oz
     44      1   2 -0.300000    -0.638590000     1.666940000     2.972003333   0   0   0 # oz
     45      1   3 -0.568800     1.730539544    -0.251805430     4.648964702   0   0   0 # oh
     46      1   3 -0.568800     2.393335456    -2.649298500     4.270371492   0   0   0 # oh
     47      1   3 -0.568800     5.364695511     0.969605859     2.407187870   0   0   0 # oh
     48      1   4  0.350000     5.996477022    -0.694304248     0.656253259   0   0   0 # ho
     49      1   4  0.350000     0.638753220     4.267682625     3.095207835   0   0   0 # ho
     50      1   3 -0.568800    -1.885165588    -5.151821955    -1.231660723   0   0   0 # oh
     51      1   3 -0.568800    -3.123736036    -3.736012406    -2.899084463   0   0   0 # oh
     52      1   4  0.350000    -4.050388534     1.609971016    -2.675609238   0   0   0 # ho
     53      1   4  0.350000    -1.160076690    -0.440175171    -3.651628930   0   0   0 # ho
     54      1   3 -0.568800     0.609778363    -3.262298958    -4.690721120   0   0   0 # oh
     55      1   3 -0.568800     0.647199873     1.624593922    -4.648964702   0   0   0 # oh
     56      1   3 -0.568800    -1.097692075     3.397338555    -4.270371492   0   0   0 # oh
     57      1   4  0.350000     4.010532743     0.061511621    -1.836053099   0   0   0 # ho
     58      1   3 -0.568800     3.522051061     4.161159667    -2.407187870   0   0   0 # oh
     59      1   4  0.350000     2.664953233     5.066011463    -0.151915754   0   0   0 # ho
     60      1   4  0.350000    -0.754515302    -0.295498098     4.694364231   0   0   0 # ho
     61      1   4  0.350000    -0.467434557    -2.742363937     3.947766313   0   0   0 # ho
     62      1   3 -0.568800    -5.404191483     0.943309688     1.231660723   0   0   0 # oh
     63      1   3 -0.568800    -4.797349670    -0.837228559     2.899084463   0   0   0 # oh
     64      1   3 -0.568800     1.885165588    -5.151821955    -0.569005944   0   0   0 # oh
     65      1   3 -0.568800     3.123736036    -3.736012406     1.098417796   0   0   0 # oh
     66      1   3 -0.568800    -3.519025895     4.208512267     0.569005944   0   0   0 # oh
     67      1   3 -0.568800    -1.673613634     4.573240965    -1.098417796   0   0   0 # oh
     68      1   3 -0.568800    -2.520344590     2.159233032     4.690721120   0   0   0 # oh
     69      1   4  0.350000     2.610853677     0.223305202     5.130022844   0   0   0 # ho
     70      1   4  0.350000     3.418807549    -2.721650700     4.689026681   0   0   0 # ho
     71      1   4  0.350000     4.914490312     1.718591563     3.091611507   0   0   0 # ho
     72      1   4  0.350000    -0.835040521    -5.304681945    -0.906128560   0   0   0 # ho
     73      1   4  0.350000    -3.996633249    -3.138061495    -2.563517501   0   0   0 # ho
     74      1   4  0.350000     1.716598375    -3.184828198    -4.658351919   0   0   0 # ho
     75      1   4  0.350000     1.751985243     1.713897223    -4.589179862   0   0   0 # ho
     76      1   4  0.350000    -1.241588347     4.336204993    -3.695981645   0   0   0 # ho
     77      1   4  0.350000     3.883191492     5.026803145    -1.813606385   0   0   0 # ho
     78      1   4  0.350000    -5.503750892     1.876588564     1.824263866   0   0   0 # ho
     79      1   4  0.350000    -4.707011760    -0.337790460     3.886252467   0   0   0 # ho
     80      1   4  0.350000     0.807024441    -5.410361055    -0.622571063   0   0   0 # ho
     81      1   4  0.350000     2.774139561    -3.135698918     1.964157966   0   0   0 # ho
     82      1   4  0.350000    -3.285204244     4.976292595     1.335778938   0   0   0 # ho
     83      1   4  0.350000    -1.327800783     5.522433876    -0.638476158   0   0   0 # ho
     84      1   4  0.350000    -1.639560704     2.623438706     5.181468365   0   0   0 # ho

Bonds

     1   1      1      5
     2   1      1     26
     3   1      1      8
     4   1      1     24
     5   1      2      9
     6   1      2     37
     7   2      2     45
     8   2      2     46
     9   2      3      7
    10   1      3     43
    11   1      3     44
    12   1      3      5
    13   1      4      8
    14   1      4      9
    15   2      4      6
    16   2      4     47
    17   3      6     48
    18   3      7     49
    19   1     10     14
    20   1     10     13
    21   2     10     50
    22   2     10     51
    23   1     19     11
    24   1     33     11
    25   2     19     12
    26   3     12     52
    27   1     33     13
    28   1     18     14
    29   2     18     15
    30   3     15     53
    31   1     22     16
    32   1     38     16
    33   1     18     17
    34   1     22     17
    35   2     18     54
    36   1     19     21
    37   1     19     20
    38   1     41     20
    39   1     23     21
    40   2     22     27
    41   1     22     26
    42   1     23     25
    43   2     23     55
    44   2     23     56
    45   1     28     24
    46   1     28     25
    47   3     27     57
    48   2     28     29
    49   2     28     58
    50   3     29     59
    51   2     42     30
    52   3     30     60
    53   1     34     31
    54   1     42     31
    55   2     39     32
    56   3     32     61
    57   1     33     35
    58   1     33     36
    59   1     34     35
    60   2     34     62
    61   2     34     63
    62   1     39     36
    63   1     39     37
    64   1     38     40
    65   2     38     64
    66   2     38     65
    67   1     39     40
    68   1     41     43
    69   2     41     66
    70   2     41     67
    71   1     42     44
    72   2     42     68
    73   3     45     69
    74   3     46     70
    75   3     47     71
    76   3     50     72
    77   3     51     73
    78   3     54     74
    79   3     55     75
    80   3     56     76
    81   3     58     77
    82   3     62     78
    83   3     63     79
    84   3     64     80
    85   3     65     81
    86   3     66     82
    87   3     67     83
    88   3     68     84

Angles

     1   1      5      1     26
     2   1      5      1      8
     3   1      5      1     24
     4   1     26      1      8
     5   1     26      1     24
     6   1      8      1     24
     7   1      9      2     37
     8   2      9      2     45
     9   2      9      2     46
    10   2     37      2     45
    11   2     37      2     46
    12   3     45      2     46
    13   2     43      3      7
    14   2     44      3      7
    15   2      5      3      7
    16   1     43      3     44
    17   1     43      3      5
    18   1     44      3      5
    19   1      8      4      9
    20   2      8      4      6
    21   2      8      4     47
    22   2      9      4      6
    23   2      9      4     47
    24   3      6      4     47
    25   4      1      5      3
    26   5      4      6     48
    27   5      3      7     49
    28   4      4      8      1
    29   4      2      9      4
    30   1     14     10     13
    31   2     14     10     50
    32   2     14     10     51
    33   2     13     10     50
    34   2     13     10     51
    35   3     50     10     51
    36   4     19     11     33
    37   5     19     12     52
    38   4     33     13     10
    39   4     10     14     18
    40   5     18     15     53
    41   4     22     16     38
    42   4     18     17     22
    43   2     17     18     15
    44   1     17     18     14
    45   2     17     18     54
    46   2     14     18     15
    47   3     15     18     54
    48   2     14     18     54
    49   1     11     19     21
    50   1     11     19     20
    51   2     11     19     12
    52   1     21     19     20
    53   2     21     19     12
    54   2     20     19     12
    55   4     41     20     19
    56   4     19     21     23
    57   2     16     22     27
    58   1     16     22     26
    59   1     16     22     17
    60   2     26     22     27
    61   2     17     22     27
    62   1     26     22     17
    63   1     25     23     21
    64   2     25     23     55
    65   2     25     23     56
    66   2     21     23     55
    67   2     21     23     56
    68   3     55     23     56
    69   4     28     24      1
    70   4     23     25     28
    71   4      1     26     22
    72   5     22     27     57
    73   2     24     28     29
    74   1     24     28     25
    75   2     24     28     58
    76   2     25     28     29
    77   3     29     28     58
    78   2     25     28     58
    79   5     28     29     59
    80   5     42     30     60
    81   4     34     31     42
    82   5     39     32     61
    83   1     35     33     13
    84   1     35     33     36
    85   1     35     33     11
    86   1     13     33     36
    87   1     13     33     11
    88   1     36     33     11
    89   1     31     34     35
    90   2     31     34     62
    91   2     31     34     63
    92   2     35     34     62
    93   2     35     34     63
    94   3     62     34     63
    95   4     33     35     34
    96   4     39     36     33
    97   4     39     37      2
    98   1     40     38     16
    99   2     40     38     64
   100   2     40     38     65
   101   2     16     38     64
   102   2     16     38     65
   103   3     64     38     65
   104   1     37     39     36
   105   2     37     39     32
   106   1     37     39     40
   107   2     36     39     32
   108   1     36     39     40
   109   2     40     39     32
   110   4     38     40     39
   111   1     20     41     43
   112   2     20     41     66
   113   2     20     41     67
   114   2     43     41     66
   115   2     43     41     67
   116   3     66     41     67
   117   2     44     42     30
   118   2     31     42     30
   119   3     30     42     68
   120   1     44     42     31
   121   2     44     42     68
   122   2     31     42     68
   123   4      3     43     41
   124   4     42     44      3
   125   5      2     45     69
   126   5      2     46     70
   127   5      4     47     71
   128   5     10     50     72
   129   5     10     51     73
   130   5     18     54     74
   131   5     23     55     75
   132   5     23     56     76
   133   5     28     58     77
   134   5     34     62     78
   135   5     34     63     79
   136   5     38     64     80
   137   5     38     65     81
   138   5     41     66     82
   139   5     41     67     83
   140   5     42     68     84

Dihedrals

     1   1     26      1      5      3
     2   1      8      1      5      3
     3   1     24      1      5      3
     4   1      5      1     26     22
     5   1      8      1     26     22
     6   1     24      1     26     22
     7   1      5      1      8      4
     8   1     26      1      8      4
     9   1     24      1      8      4
    10   1      5      1     24     28
    11   1     26      1     24     28
    12   1      8      1     24     28
    13   1     37      2      9      4
    14   2     45      2      9      4
    15   2     46      2      9      4
    16   1      9      2     37     39
    17   2     45      2     37     39
    18   2     46      2     37     39
    19   3      9      2     45     69
    20   3     37      2     45     69
    21   4     46      2     45     69
    22   3      9      2     46     70
    23   3     37      2     46     70
    24   4     45      2     46     70
    25   3     43      3      7     49
    26   3     44      3      7     49
    27   3      5      3      7     49
    28   2      7      3     43     41
    29   1     44      3     43     41
    30   1      5      3     43     41
    31   2      7      3     44     42
    32   1     43      3     44     42
    33   1      5      3     44     42
    34   2      7      3      5      1
    35   1     43      3      5      1
    36   1     44      3      5      1
    37   1      9      4      8      1
    38   2      6      4      8      1
    39   2     47      4      8      1
    40   1      8      4      9      2
    41   2      6      4      9      2
    42   2     47      4      9      2
    43   3      8      4      6     48
    44   3      9      4      6     48
    45   4     47      4      6     48
    46   3      8      4     47     71
    47   3      9      4     47     71
    48   4      6      4     47     71
    49   1     13     10     14     18
    50   2     50     10     14     18
    51   2     51     10     14     18
    52   1     14     10     13     33
    53   2     50     10     13     33
    54   2     51     10     13     33
    55   3     14     10     50     72
    56   3     13     10     50     72
    57   4     51     10     50     72
    58   3     14     10     51     73
    59   3     13     10     51     73
    60   4     50     10     51     73
    61   1     21     19     11     33
    62   1     20     19     11     33
    63   2     12     19     11     33
    64   1     35     33     11     19
    65   1     13     33     11     19
    66   1     36     33     11     19
    67   3     11     19     12     52
    68   3     21     19     12     52
    69   3     20     19     12     52
    70   1     35     33     13     10
    71   1     36     33     13     10
    72   1     11     33     13     10
    73   1     17     18     14     10
    74   2     15     18     14     10
    75   2     54     18     14     10
    76   3     17     18     15     53
    77   3     14     18     15     53
    78   4     54     18     15     53
    79   2     27     22     16     38
    80   1     26     22     16     38
    81   1     17     22     16     38
    82   1     40     38     16     22
    83   2     64     38     16     22
    84   2     65     38     16     22
    85   2     15     18     17     22
    86   1     14     18     17     22
    87   2     54     18     17     22
    88   1     16     22     17     18
    89   2     27     22     17     18
    90   1     26     22     17     18
    91   3     17     18     54     74
    92   4     15     18     54     74
    93   3     14     18     54     74
    94   1     11     19     21     23
    95   1     20     19     21     23
    96   2     12     19     21     23
    97   1     11     19     20     41
    98   1     21     19     20     41
    99   2     12     19     20     41
   100   1     43     41     20     19
   101   2     66     41     20     19
   102   2     67     41     20     19
   103   1     25     23     21     19
   104   2     55     23     21     19
   105   2     56     23     21     19
   106   3     16     22     27     57
   107   3     26     22     27     57
   108   3     17     22     27     57
   109   1     16     22     26      1
   110   2     27     22     26      1
   111   1     17     22     26      1
   112   1     21     23     25     28
   113   2     55     23     25     28
   114   2     56     23     25     28
   115   3     25     23     55     75
   116   3     21     23     55     75
   117   4     56     23     55     75
   118   3     25     23     56     76
   119   3     21     23     56     76
   120   4     55     23     56     76
   121   2     29     28     24      1
   122   1     25     28     24      1
   123   2     58     28     24      1
   124   1     24     28     25     23
   125   2     29     28     25     23
   126   2     58     28     25     23
   127   3     24     28     29     59
   128   3     25     28     29     59
   129   4     58     28     29     59
   130   3     24     28     58     77
   131   4     29     28     58     77
   132   3     25     28     58     77
   133   3     44     42     30     60
   134   3     31     42     30     60
   135   4     68     42     30     60
   136   1     35     34     31     42
   137   2     62     34     31     42
   138   2     63     34     31     42
   139   2     30     42     31     34
   140   1     44     42     31     34
   141   2     68     42     31     34
   142   3     37     39     32     61
   143   3     36     39     32     61
   144   3     40     39     32     61
   145   1     13     33     35     34
   146   1     36     33     35     34
   147   1     11     33     35     34
   148   1     35     33     36     39
   149   1     13     33     36     39
   150   1     11     33     36     39
   151   1     31     34     35     33
   152   2     62     34     35     33
   153   2     63     34     35     33
   154   3     31     34     62     78
   155   3     35     34     62     78
   156   4     63     34     62     78
   157   3     31     34     63     79
   158   3     35     34     63     79
   159   4     62     34     63     79
   160   1     37     39     36     33
   161   2     32     39     36     33
   162   1     40     39     36     33
   163   1     36     39     37      2
   164   2     32     39     37      2
   165   1     40     39     37      2
   166   1     16     38     40     39
   167   2     64     38     40     39
   168   2     65     38     40     39
   169   3     40     38     64     80
   170   3     16     38     64     80
   171   4     65     38     64     80
   172   3     40     38     65     81
   173   3     16     38     65     81
   174   4     64     38     65     81
   175   1     37     39     40     38
   176   1     36     39     40     38
   177   2     32     39     40     38
   178   1     20     41     43      3
   179   2     66     41     43      3
   180   2     67     41     43      3
   181   3     20     41     66     82
   182   3     43     41     66     82
   183   4     67     41     66     82
   184   3     20     41     67     83
   185   3     43     41     67     83
   186   4     66     41     67     83
   187   2     30     42     44      3
   188   1     31     42     44      3
   189   2     68     42     44      3
   190   4     30     42     68     84
   191   3     44     42     68     84
   192   3     31     42     68     84

