LAMMPS data file. msi2lmp v3.9.11 / 6 Sep 2024 / CGCMM for Sio2

    964 atoms
     976 bonds
     1834 angles
   2640 dihedrals
     84 impropers

  16 atom types
   27 bond types
   64 angle types
  90 dihedral types
   5 improper types

   -30.243483924    19.666087763 xlo xhi
   -34.599643653    26.937017584 ylo yhi
   -31.074671745    38.098917226 zlo zhi


Masses

	   1  28.085500 # sz
	   2  15.999400 # oz
	   3  15.999400 # oh
	   4  15.999400 # o
	   5  28.086000 # si
	   6  1.007970 # ho
	   7  12.011150 # c2
	   8  12.011150 # c'
	   9  12.011150 # c1
	  10  12.011150 # c3
	  11  15.999400 # o'
	  12   1.007970 # h
	  13  14.006700 # n
	  14   1.007970 # hn
	  15  12.011150 # c
	  16  32.064000 # s

Pair Coeffs

	   1  0.00000184050       3.3020000000 # sz
	   2  0.15540000000       3.1655700000 # oz
	   3  0.15540000000       3.1655700000 # oh
	   4   0.2280000124   2.8597848722 # o
	   5   0.0400184175   4.0534337049 # si
	   6  0.00000000000       0.0000000000 # ho
	   7   0.0389999952   3.8754094636 # c2
	   8   0.1479999981   3.6170487995 # c'
	   9   0.0389999952   3.8754094636 # c1
	  10   0.0389999952   3.8754094636 # c3
	  11   0.2280000124   2.8597848722 # o'
	  12   0.0380000011   2.4499714540 # h
	  13   0.1669999743   3.5012320066 # n
	  14   0.0000000000   0.0000000000 # hn
	  15   0.1599999990   3.4745050026 # c
	  16   0.0429759086   3.3677544003 # s

Bond Coeffs

	   1   392.8000     1.6150 # sz-oz
	   2   392.8000     1.6350 # sz-oh
	   3  554.1349     1.0000 # oh-ho
	   4   392.8000     1.6150 # sz-o
	   5   392.8000     1.6650 # o-si
	   6     0.0000     0.0000 # oz-si
	   7   238.0000     1.8090 # si-c2
	   8   322.7158     1.5260 # c2-c2
	   9   340.6175     1.1050 # c2-h
	  10   273.2000     1.4250 # o-c2
	  11   400.0000     1.3700 # o-c'
	  12   283.0924     1.5200 # c'-c1
	  13   615.3220     1.2300 # c'-o'
	  14   322.7158     1.5260 # c2-c1
	  15   322.7158     1.5260 # c1-c3
	  16   340.6175     1.1050 # c1-h
	  17   340.6175     1.1050 # c3-h
	  18   388.0000     1.3200 # c'-n
	  19   377.5752     1.4600 # c1-n
	  20   483.4512     1.0260 # n-hn
	  21   283.0924     1.5200 # c2-c'
	  22   377.5752     1.4600 # n-c
	  23   322.7158     1.5260 # c3-c
	  24   322.7158     1.5260 # c2-c
	  25   228.0000     1.8000 # c2-s
	  26     0.0000     0.0000 # o'-s
	  27     0.0000     0.0000 # oh-s

Angle Coeffs

	   1   100.3000   109.4700 # oz-sz-oz
	   2     0.0000     0.0000 # oz-sz-oh
	   3     0.0000     0.0000 # oh-sz-oh
	   4    31.1000   149.8000 # sz-oz-sz
	   5  30.0     109.47 # sz-oh-ho
	   6     0.0000     0.0000 # oh-sz-o
	   7     0.0000     0.0000 # oz-sz-o
	   8     0.0000     0.0000 # sz-o-si
	   9     0.0000     0.0000 # o-sz-o
	  10     0.0000     0.0000 # oz-si-o
	  11    42.3000   113.1000 # o-si-o
	  12     0.0000     0.0000 # sz-oz-si
	  13    31.1000   149.8000 # si-o-si
	  14    44.1000   117.3000 # o-si-c2
	  15     0.0000     0.0000 # si-c2-c2
	  16    34.6000   112.3000 # si-c2-h
	  17    44.4000   110.0000 # c2-c2-h
	  18    39.5000   106.4000 # h-c2-h
	  19    46.6000   110.5000 # c2-c2-c2
	  20    70.0000   109.5000 # o-c2-c2
	  21    57.0000   109.5000 # o-c2-h
	  22    60.0000   109.5000 # c2-o-c'
	  23   122.8000   110.0000 # o-c'-c1
	  24   145.0000   123.0000 # o-c'-o'
	  25    68.0000   120.0000 # c1-c'-o'
	  26    46.6000   110.5000 # c2-c1-c'
	  27    46.6000   110.5000 # c'-c1-c3
	  28    45.0000   109.5000 # c'-c1-h
	  29    46.6000   110.5000 # c2-c1-c3
	  30    44.4000   110.0000 # c2-c1-h
	  31    44.4000   110.0000 # c3-c1-h
	  32    44.4000   110.0000 # c1-c2-h
	  33    46.6000   110.5000 # c2-c2-c1
	  34    44.4000   110.0000 # c1-c3-h
	  35    39.5000   106.4000 # h-c3-h
	  36    46.6000   110.5000 # c2-c1-c2
	  37    53.5000   114.1000 # c1-c'-n
	  38    68.0000   120.0000 # o'-c'-n
	  39   111.0000   118.0000 # c'-n-c1
	  40    37.5000   115.0000 # c'-n-hn
	  41    35.0000   122.0000 # c1-n-hn
	  42    50.0000   109.5000 # c3-c1-n
	  43    51.5000   109.5000 # h-c1-n
	  44    46.6000   110.5000 # c3-c1-c3
	  45    46.6000   110.5000 # c1-c2-c1
	  46    46.6000   110.5000 # c2-c2-c'
	  47    45.0000   109.5000 # c'-c2-h
	  48    53.5000   114.1000 # c2-c'-n
	  49    68.0000   120.0000 # c2-c'-o'
	  50   111.0000   118.0000 # c'-n-c
	  51    35.0000   122.0000 # hn-n-c
	  52    50.0000   109.5000 # c3-c-n
	  53    50.0000   109.5000 # c2-c-n
	  54    46.6000   110.5000 # c3-c-c3
	  55    46.6000   110.5000 # c2-c-c3
	  56    44.4000   110.0000 # h-c3-c
	  57    62.0000   109.0000 # c-c2-s
	  58    44.4000   110.0000 # h-c2-c
	  59    45.0000   109.0000 # h-c2-s
	  60     0.0000     0.0000 # c2-s-o'
	  61     0.0000     0.0000 # oh-s-c2
	  62     0.0000     0.0000 # o'-s-o'
	  63     0.0000     0.0000 # oh-s-o'
	  64     0.0000     0.0000 # ho-oh-s

Dihedral Coeffs

	  1     0.3000   1   3 # oz-sz-oz-sz
	  2     0.3333   1   3 # oh-sz-oz-sz
	  3     0.0000   0   0 # oz-sz-oh-ho
	  4     0.0000   0   0 # oh-sz-oh-ho
	  5     0.0000   0   0 # o-sz-oh-ho
	  6     0.3333   1   3 # o-sz-oz-sz
	  7     0.0000   0   0 # oh-sz-o-si
	  8     0.0000   0   0 # oz-sz-o-si
	  9     0.0000   0   0 # sz-o-si-o
	 10     0.0000   0   0 # sz-o-si-c2
	 11     0.0000   0   0 # o-sz-o-si
	 12     0.0000   0   0 # sz-o-si-oz
	 13     0.0000   0   0 # sz-oz-si-o
	 14     0.0000   0   0 # si-o-si-oz
	 15     0.3000   1   3 # si-o-si-o
	 16     0.3333   1   3 # oh-sz-oz-si
	 17     0.3333   1   3 # oz-sz-oz-si
	 18     0.4000   1   3 # si-o-si-c2
	 19     0.0000   0   0 # o-si-c2-c2
	 20    -0.1000   1   3 # o-si-c2-h
	 21     0.1581   1   3 # si-c2-c2-c2
	 22     0.1581   1   3 # si-c2-c2-h
	 23     0.1581   1   3 # c2-c2-c2-h
	 24     0.1581   1   3 # h-c2-c2-h
	 25     0.1581   1   3 # o-c2-c2-c2
	 26     0.1581   1   3 # o-c2-c2-h
	 27     0.1300   1   3 # c'-o-c2-c2
	 28     0.1300   1   3 # c'-o-c2-h
	 29     2.2500  -1   2 # c2-o-c'-c1
	 30     2.2500  -1   2 # c2-o-c'-o'
	 31     0.0000   1   0 # o-c'-c1-c2
	 32     0.0000   1   0 # o-c'-c1-c3
	 33     0.0000   1   0 # o-c'-c1-h
	 34     0.0000   1   0 # o'-c'-c1-c2
	 35     0.0000   1   0 # o'-c'-c1-c3
	 36     0.0000   1   0 # o'-c'-c1-h
	 37     0.1581   1   3 # h-c2-c1-c'
	 38     0.1581   1   3 # c2-c2-c1-c'
	 39     0.1581   1   3 # h-c2-c1-c3
	 40     0.1581   1   3 # c2-c2-c1-c3
	 41     0.1581   1   3 # h-c2-c1-h
	 42     0.1581   1   3 # c2-c2-c1-h
	 43     0.1581   1   3 # c'-c1-c3-h
	 44     0.1581   1   3 # c2-c1-c3-h
	 45     0.1581   1   3 # h-c1-c3-h
	 46     0.1581   1   3 # c1-c2-c2-c1
	 47     0.1581   1   3 # c1-c2-c2-h
	 48     0.1581   1   3 # h-c2-c1-c2
	 49     0.1581   1   3 # c2-c2-c1-c2
	 50     0.0000   1   0 # n-c'-c1-c2
	 51     0.0000   1   0 # n-c'-c1-h
	 52     0.1581   1   3 # c1-c2-c1-c2
	 53     0.1581   1   3 # c1-c2-c1-c'
	 54     0.1581   1   3 # c1-c2-c1-h
	 55     3.2000  -1   2 # c1-c'-n-c1
	 56     1.2000  -1   2 # c1-c'-n-hn
	 57     3.8000  -1   2 # o'-c'-n-c1
	 58     1.8000  -1   2 # o'-c'-n-hn
	 59     0.0000   1   0 # c3-c1-n-c'
	 60     0.0000   1   0 # h-c1-n-c'
	 61     0.0000   1   0 # c3-c1-n-hn
	 62     0.0000   1   0 # h-c1-n-hn
	 63     0.1581   1   3 # n-c1-c3-h
	 64     0.1581   1   3 # c3-c1-c3-h
	 65     0.1581   1   3 # c'-c2-c2-h
	 66     0.1581   1   3 # c'-c2-c2-c1
	 67     0.0000   1   0 # c2-c2-c'-n
	 68     0.0000   1   0 # c2-c2-c'-o'
	 69     0.0000   1   0 # h-c2-c'-n
	 70     0.0000   1   0 # h-c2-c'-o'
	 71     3.2000  -1   2 # c2-c'-n-c
	 72     1.2000  -1   2 # c2-c'-n-hn
	 73     3.8000  -1   2 # o'-c'-n-c
	 74     0.0000   1   0 # c'-n-c-c3
	 75     0.0000   1   0 # c'-n-c-c2
	 76     0.0000   1   0 # hn-n-c-c3
	 77     0.0000   1   0 # hn-n-c-c2
	 78     0.1581   1   3 # h-c3-c-n
	 79     0.1581   1   3 # h-c3-c-c3
	 80     0.1581   1   3 # h-c3-c-c2
	 81     0.1581   1   3 # s-c2-c-n
	 82     0.1581   1   3 # h-c2-c-n
	 83     0.1581   1   3 # s-c2-c-c3
	 84     0.1581   1   3 # h-c2-c-c3
	 85     0.0467   1   3 # c-c2-s-o'
	 86     0.0467   1   3 # c-c2-s-oh
	 87     0.0467   1   3 # h-c2-s-o'
	 88     0.0467   1   3 # h-c2-s-oh
	 89     0.0000   0   0 # ho-oh-s-c2
	 90     0.0000   0   0 # ho-oh-s-o'

Impropers Coeffs

	    1    11.6000  -1   2 # c1-c'-o-o'
	    2    10.0000  -1   2 # c1-c'-n-o'
	    3     0.0500  -1   2 # c'-n-c1-hn
	    4    10.0000  -1   2 # c2-c'-n-o'
	    5     0.0500  -1   2 # c'-n-c-hn

Atoms

1	1	1	2.100000	1.840997242	1.002510343	0.172768290	0	0	0	#	sz
2	1	1	2.100000	0.433808994	3.402694384	1.882191666	0	0	0	#	sz
3	1	2	-1.050000	0.446831462	1.562996073	1.359863876	0	0	0	#	oz
4	1	3	-0.950000	-8.133973010	-2.837112267	-0.932779125	0	0	0	#	oh
5	1	2	-1.050000	-2.578406669	-5.752505860	-1.786357165	0	0	0	#	oz
6	1	3	-0.950000	-3.415384779	-2.990090274	-2.831405027	0	0	0	#	oh
7	1	1	2.100000	-7.308564789	-1.114983885	-0.969781947	0	0	0	#	sz
8	1	2	-1.050000	-6.746598172	-0.736001610	0.818554437	0	0	0	#	oz
9	1	2	-1.050000	-5.933040716	-1.158529497	-2.307558370	0	0	0	#	oz
10	1	1	2.100000	-2.491728007	-3.874673778	-1.411649023	0	0	0	#	sz
11	1	1	2.100000	-5.247564904	0.505353626	-2.968449992	0	0	0	#	sz
12	1	2	-1.050000	-2.180120102	-1.089301566	-1.467324574	0	0	0	#	oz
13	1	2	-1.050000	-4.098616395	1.397489247	-1.729636426	0	0	0	#	oz
14	1	2	-1.050000	-3.243483874	-3.298031887	0.249328112	0	0	0	#	oz
15	1	3	-0.950000	-0.606995410	-3.776371483	-4.406736801	0	0	0	#	oh
16	1	2	-1.050000	-0.710187396	-3.188076587	-1.359499353	0	0	0	#	oz
17	1	1	2.100000	0.409321087	-3.761246645	-2.789858701	0	0	0	#	sz
18	1	2	-1.050000	3.460536879	-2.271554641	-0.251456829	0	0	0	#	oz
19	1	2	-1.050000	1.876991053	-2.567558740	-3.078065714	0	0	0	#	oz
20	1	1	2.100000	-2.290827875	0.781952264	-1.800614453	0	0	0	#	sz
21	1	2	-1.050000	-1.388608791	1.641282192	-0.363316138	0	0	0	#	oz
22	1	4	-0.150000	-1.491110733	1.237588147	-3.477092335	0	0	0	#	o
23	1	1	2.100000	2.522334517	-1.423750016	-1.684687474	0	0	0	#	sz
24	1	2	-1.050000	1.112153499	-0.397512703	-0.908639425	0	0	0	#	oz
25	1	3	-0.950000	-5.060266070	-5.137427779	0.780744974	0	0	0	#	oh
26	1	1	2.100000	-1.838262720	-6.965855697	-0.505415600	0	0	0	#	sz
27	1	1	2.100000	-3.726431641	-6.065445723	1.785104259	0	0	0	#	sz
28	1	2	-1.050000	-3.135254679	-7.567426452	0.771726404	0	0	0	#	oz
29	1	4	-0.150000	-2.122243575	-5.004731805	1.778123703	0	0	0	#	o
30	1	1	2.100000	-6.820685915	1.134111727	1.210331235	0	0	0	#	sz
31	1	2	-1.050000	-5.632510958	1.500361637	2.660285377	0	0	0	#	oz
32	1	3	-0.950000	-3.642466801	-0.696374947	3.607007761	0	0	0	#	oh
33	1	1	2.100000	-2.777732265	-1.447752114	0.310210341	0	0	0	#	sz
34	1	5	0.600000	-1.793373179	-4.170887215	3.455364909	0	0	0	#	si
35	1	1	2.100000	-4.014576272	0.581081221	2.236307207	0	0	0	#	sz
36	1	2	-1.050000	-4.311365034	-0.356943210	0.598630727	0	0	0	#	oz
37	1	3	-0.950000	-1.664605876	1.022634897	4.911886009	0	0	0	#	oh
38	1	2	-1.050000	-2.522921061	1.763452043	2.038768130	0	0	0	#	oz
39	1	2	-1.050000	-1.591833095	-0.885126658	1.709786617	0	0	0	#	oz
40	1	2	-1.050000	-0.323715459	-2.992955821	3.740577185	0	0	0	#	oz
41	1	1	2.100000	2.382727963	-3.428235015	0.822480769	0	0	0	#	sz
42	1	1	2.100000	-0.040915068	-1.889432703	2.206771344	0	0	0	#	sz
43	1	2	-1.050000	0.541089504	-2.936362830	0.720177902	0	0	0	#	oz
44	1	3	-0.950000	1.321887087	-0.672655987	2.758717068	0	0	0	#	oh
45	1	1	2.100000	-0.967167457	3.424211491	-0.883375466	0	0	0	#	sz
46	1	1	2.100000	-1.997637767	2.484453594	3.728493957	0	0	0	#	sz
47	1	2	-1.050000	-0.617743901	4.457224531	0.680851733	0	0	0	#	oz
48	1	2	-1.050000	-0.397499553	3.527928916	3.599682267	0	0	0	#	oz
49	1	3	-0.950000	3.294758532	0.329504611	1.212736452	0	0	0	#	oh
50	1	3	-0.950000	2.482936904	2.431829347	-0.918255284	0	0	0	#	oh
51	1	3	-0.950000	2.219346727	4.075712135	1.963748829	0	0	0	#	oh
52	1	6	0.350000	-7.383012927	-3.599994006	-0.639803707	0	0	0	#	ho
53	1	6	0.350000	-4.479022718	-3.305682288	-2.835811249	0	0	0	#	ho
54	1	4	-0.150000	-8.589696413	0.219954583	-1.425929033	0	0	0	#	o
55	1	3	-0.950000	-4.254488311	0.190038592	-4.569210615	0	0	0	#	oh
56	1	4	-0.150000	-6.686079259	1.704565305	-3.345537264	0	0	0	#	o
57	1	6	0.350000	-0.981305749	-2.752126763	-4.617411651	0	0	0	#	ho
58	1	4	-0.150000	0.977785784	-5.554632151	-2.473947754	0	0	0	#	o
59	1	3	-0.950000	3.733669673	-0.205776401	-2.519776503	0	0	0	#	oh
60	1	6	0.350000	-5.332985128	-4.199918340	1.308476517	0	0	0	#	ho
61	1	3	-0.950000	-1.218702283	-8.520225753	-1.427365592	0	0	0	#	oh
62	1	4	-0.150000	-0.360632700	-6.123960145	0.372449415	0	0	0	#	o
63	1	4	-0.150000	-4.509801208	-6.545291755	3.478728237	0	0	0	#	o
64	1	3	-0.950000	-8.598846216	1.690700102	1.630131544	0	0	0	#	oh
65	1	4	-0.150000	-6.258572139	2.056569197	-0.357487745	0	0	0	#	o
66	1	6	0.350000	-3.484455096	-0.169181738	4.571214807	0	0	0	#	ho
67	1	4	-0.300000	-3.506827730	-3.920747198	4.240589186	0	0	0	#	o
68	1	4	-0.300000	-2.035312069	-5.602758346	4.683793681	0	0	0	#	o
69	1	6	0.350000	-1.374250658	1.413496432	5.909305467	0	0	0	#	ho
70	1	4	-0.150000	2.656705322	-5.244520378	0.295535138	0	0	0	#	o
71	1	3	-0.950000	2.977110949	-3.261460035	2.629923987	0	0	0	#	oh
72	1	6	0.350000	0.954676770	-0.070300354	3.616357473	0	0	0	#	ho
73	1	4	-0.150000	-2.171888734	4.014169739	-2.244282092	0	0	0	#	o
74	1	4	-0.150000	0.429658550	3.288665234	-2.174103051	0	0	0	#	o
75	1	3	-0.950000	-3.413035615	3.551955263	4.438954407	0	0	0	#	oh
76	1	6	0.350000	3.688708983	1.138884492	1.862410865	0	0	0	#	ho
77	1	6	0.350000	2.878684607	3.239708435	-0.269954877	0	0	0	#	ho
78	1	6	0.350000	2.199747352	5.135596811	2.289219509	0	0	0	#	ho
79	1	6	0.350000	-3.859450998	1.153103056	-4.954005217	0	0	0	#	ho
80	1	6	0.350000	4.113486871	0.515628848	-1.764762735	0	0	0	#	ho
81	1	6	0.350000	-2.070682577	-9.009957102	-1.944063839	0	0	0	#	ho
82	1	6	0.350000	-8.607811181	2.784245135	1.819883685	0	0	0	#	ho
83	1	6	0.350000	2.856964024	-2.208729116	2.962225102	0	0	0	#	ho
84	1	6	0.350000	-3.117638401	3.941806096	5.436826270	0	0	0	#	ho
85	1	5	0.450000	-3.904099432	-5.607750855	5.027009101	0	0	0	#	si
86	1	7	-0.200000	-4.484751800	-5.614232230	6.877940157	0	0	0	#	c2
87	1	7	-0.200000	-5.892643496	-5.011338744	7.027849787	0	0	0	#	c2
88	1	7	-0.050000	-6.166544666	-4.839075821	8.533397757	0	0	0	#	c2
89	1	4	-0.180000	-7.482748929	-4.135669002	8.755499914	0	0	0	#	o
90	1	8	0.410000	-7.530402195	-3.685733569	10.196189397	0	0	0	#	c'
91	1	9	-0.100000	-8.072863116	-4.636153685	11.280778486	0	0	0	#	c1
92	1	7	-0.200000	-7.522835485	-4.288892549	12.679602416	0	0	0	#	c2
93	1	10	-0.300000	-7.640682666	-6.066845170	10.910773533	0	0	0	#	c3
94	1	11	-0.380000	-6.945402468	-2.347356581	10.577528507	0	0	0	#	o'
95	1	12	0.100000	-3.764065285	-4.950148347	7.462883285	0	0	0	#	h
96	1	12	0.100000	-4.452537207	-6.669719391	7.308355676	0	0	0	#	h
97	1	12	0.100000	-5.905072586	-3.980571349	6.540441923	0	0	0	#	h
98	1	12	0.100000	-6.676526008	-5.678189721	6.535336449	0	0	0	#	h
99	1	12	0.100000	-5.337890693	-4.190776358	8.970341466	0	0	0	#	h
100	1	12	0.100000	-6.169248854	-5.851328718	9.060369246	0	0	0	#	h
101	1	12	0.100000	-7.925764012	-5.047245843	13.429973104	0	0	0	#	h
102	1	12	0.100000	-6.383121747	-4.340250479	12.668014590	0	0	0	#	h
103	1	12	0.100000	-8.041580934	-6.799839436	11.686383475	0	0	0	#	h
104	1	12	0.100000	-8.055014599	-6.333420703	9.882545159	0	0	0	#	h
105	1	12	0.100000	-9.211187941	-4.579625363	11.300395387	0	0	0	#	h
106	1	12	0.100000	-6.501951598	-6.122714232	10.884648418	0	0	0	#	h
107	1	9	-0.100000	-7.468158194	-2.595834410	14.544838318	0	0	0	#	c1
108	1	7	-0.200000	-7.972056486	-2.881567638	13.118034646	0	0	0	#	c2
109	1	8	0.380000	-7.920626435	-1.182488080	14.950858028	0	0	0	#	c'
110	1	12	0.100000	-6.329919991	-2.653674247	14.576723449	0	0	0	#	h
111	1	12	0.100000	-7.553969374	-2.095169687	12.408480284	0	0	0	#	h
112	1	12	0.100000	-9.111508817	-2.830114965	13.110445463	0	0	0	#	h
113	1	13	-0.500000	-9.340905582	-0.947125500	15.402489929	0	0	0	#	n
114	1	11	-0.380000	-6.919284825	-0.053417748	14.991656662	0	0	0	#	o'
115	1	9	0.120000	-9.762190778	0.422842763	15.875540758	0	0	0	#	c1
116	1	14	0.280000	-10.072618182	-1.781813106	15.393912923	0	0	0	#	hn
117	1	10	-0.300000	-11.256167064	0.401958680	16.247651338	0	0	0	#	c3
118	1	10	-0.300000	-9.523906180	1.447701521	14.751082328	0	0	0	#	c3
119	1	12	0.100000	-9.146265092	0.712323461	16.790257068	0	0	0	#	h
120	1	12	0.100000	-11.871004483	0.110961751	15.332151160	0	0	0	#	h
121	1	12	0.100000	-11.572918624	1.436288403	16.605105166	0	0	0	#	h
122	1	12	0.100000	-11.429409952	-0.357817290	17.079086332	0	0	0	#	h
123	1	12	0.100000	-9.839475104	2.483628220	15.107531461	0	0	0	#	h
124	1	12	0.100000	-10.138775509	1.156544434	13.836172890	0	0	0	#	h
125	1	12	0.100000	-8.418043499	1.460117978	14.477079761	0	0	0	#	h
126	1	9	-0.100000	-7.650573447	-3.447878589	16.960368066	0	0	0	#	c1
127	1	7	-0.200000	-8.067124052	-3.655816081	15.489281322	0	0	0	#	c2
128	1	8	0.380000	-6.118432279	-3.451397437	17.091107527	0	0	0	#	c'
129	1	12	0.100000	-8.087587752	-4.298544940	17.578858125	0	0	0	#	h
130	1	12	0.100000	-9.204310154	-3.616460949	15.421589048	0	0	0	#	h
131	1	12	0.100000	-7.707834782	-4.681189836	15.144949174	0	0	0	#	h
132	1	13	-0.500000	-5.432073247	-4.551452995	17.863030219	0	0	0	#	n
133	1	11	-0.380000	-5.313838266	-2.295832595	16.546398212	0	0	0	#	o'
134	1	9	0.120000	-3.957658239	-4.447079659	18.165976707	0	0	0	#	c1
135	1	14	0.280000	-6.018376230	-5.415017122	18.240298555	0	0	0	#	hn
136	1	10	-0.300000	-3.715508339	-3.160819796	18.978882204	0	0	0	#	c3
137	1	10	-0.300000	-3.160879185	-4.386653364	16.849581251	0	0	0	#	c3
138	1	12	0.100000	-3.626072829	-5.351906144	18.774672262	0	0	0	#	h
139	1	12	0.100000	-4.053815936	-2.260286024	18.368045839	0	0	0	#	h
140	1	12	0.100000	-2.606684452	-3.063570815	19.220803348	0	0	0	#	h
141	1	12	0.100000	-4.315883091	-3.203844985	19.946966452	0	0	0	#	h
142	1	12	0.100000	-2.048833296	-4.297924930	17.081993014	0	0	0	#	h
143	1	12	0.100000	-3.496692189	-3.481332451	16.245395206	0	0	0	#	h
144	1	12	0.100000	-3.349544221	-5.336347170	16.247969792	0	0	0	#	h
145	1	9	-0.100000	-7.888150002	-1.980763994	19.026844314	0	0	0	#	c1
146	1	7	-0.200000	-8.192179392	-2.118475784	17.521342519	0	0	0	#	c2
147	1	8	0.380000	-8.508107611	-3.177944921	19.765739282	0	0	0	#	c'
148	1	12	0.100000	-8.356636724	-1.012667246	19.405394910	0	0	0	#	h
149	1	12	0.100000	-7.729441041	-1.240466341	16.961936124	0	0	0	#	h
150	1	12	0.100000	-9.324487708	-2.101147866	17.379507518	0	0	0	#	h
151	1	13	-0.500000	-9.700579299	-2.970207802	20.666382764	0	0	0	#	n
152	1	11	-0.380000	-7.839368844	-4.530173270	19.699000548	0	0	0	#	o'
153	1	9	0.120000	-10.170556803	-4.093151309	21.557385111	0	0	0	#	c1
154	1	14	0.280000	-10.204671425	-1.982048720	20.703184655	0	0	0	#	hn
155	1	10	-0.300000	-9.015882909	-4.478375433	22.501655953	0	0	0	#	c3
156	1	10	-0.300000	-10.566313676	-5.307152431	20.696594039	0	0	0	#	c3
157	1	12	0.100000	-11.067749223	-3.747453531	22.170744819	0	0	0	#	h
158	1	12	0.100000	-8.120068697	-4.815881755	21.883154451	0	0	0	#	h
159	1	12	0.100000	-9.348464188	-5.326217047	23.187190830	0	0	0	#	h
160	1	12	0.100000	-8.718466809	-3.573774421	23.128521635	0	0	0	#	h
161	1	12	0.100000	-10.910289204	-6.157151875	21.374202391	0	0	0	#	h
162	1	12	0.100000	-9.666823873	-5.648341078	20.085733701	0	0	0	#	h
163	1	12	0.100000	-11.413601228	-5.014341071	19.993742388	0	0	0	#	h
164	1	9	-0.100000	-6.121571765	-1.703484553	20.833801459	0	0	0	#	c1
165	1	7	-0.200000	-6.376110383	-1.939524569	19.330207458	0	0	0	#	c2
166	1	8	0.380000	-6.794935052	-0.376959327	21.222968165	0	0	0	#	c'
167	1	12	0.100000	-4.997348259	-1.635612471	21.013147056	0	0	0	#	h
168	1	12	0.100000	-5.889229306	-2.920898328	19.022134292	0	0	0	#	h
169	1	12	0.100000	-5.907627047	-1.082699764	18.742350147	0	0	0	#	h
170	1	13	-0.500000	-8.276567732	-0.348467250	21.508712016	0	0	0	#	n
171	1	11	-0.380000	-5.961395248	0.866754605	21.416813338	0	0	0	#	o'
172	1	9	0.120000	-8.939345333	0.936168205	21.941447101	0	0	0	#	c1
173	1	14	0.280000	-8.879997301	-1.271613598	21.391332964	0	0	0	#	hn
174	1	10	-0.300000	-10.457910732	0.707836317	22.054791908	0	0	0	#	c3
175	1	10	-0.300000	-8.661433916	2.035114487	20.899192625	0	0	0	#	c3
176	1	12	0.100000	-8.524237346	1.255729605	22.953770414	0	0	0	#	h
177	1	12	0.100000	-10.868756965	0.385441409	21.041645752	0	0	0	#	h
178	1	12	0.100000	-10.965014791	1.674589091	22.380905025	0	0	0	#	h
179	1	12	0.100000	-10.662357757	-0.108039662	22.824526117	0	0	0	#	h
180	1	12	0.100000	-9.165380699	3.003957994	21.224498727	0	0	0	#	h
181	1	12	0.100000	-9.076092141	1.711486525	19.887502190	0	0	0	#	h
182	1	12	0.100000	-7.537258893	2.201450862	20.813048330	0	0	0	#	h
183	1	9	-0.100000	-6.387030435	-2.656871977	23.194220895	0	0	0	#	c1
184	1	7	-0.200000	-6.692968983	-2.848487394	21.696107780	0	0	0	#	c2
185	1	8	0.380000	-4.862285780	-2.565600297	23.368357977	0	0	0	#	c'
186	1	12	0.100000	-6.794098481	-3.554161227	23.768072102	0	0	0	#	h
187	1	12	0.100000	-7.822780965	-2.901536575	21.571699593	0	0	0	#	h
188	1	12	0.100000	-6.225813537	-3.829566737	21.351550761	0	0	0	#	h
189	1	13	-0.500000	-4.154967919	-1.265119625	23.076756043	0	0	0	#	n
190	1	11	-0.380000	-4.090644093	-3.741751755	23.916608509	0	0	0	#	o'
191	1	9	0.120000	-2.664423407	-1.154505307	23.284008887	0	0	0	#	c1
192	1	14	0.280000	-4.730706644	-0.393406468	22.701536864	0	0	0	#	hn
193	1	10	-0.300000	-2.190637420	0.245976697	22.853623639	0	0	0	#	c3
194	1	10	-0.300000	-1.953245775	-2.224115220	22.434455818	0	0	0	#	c3
195	1	12	0.100000	-2.420941825	-1.317757370	24.385568149	0	0	0	#	h
196	1	12	0.100000	-2.437232035	0.406873406	21.751841477	0	0	0	#	h
197	1	12	0.100000	-1.064253200	0.330495921	23.007557847	0	0	0	#	h
198	1	12	0.100000	-2.720753966	1.035541048	23.480786249	0	0	0	#	h
199	1	12	0.100000	-0.826560782	-2.143621361	22.586847622	0	0	0	#	h
200	1	12	0.100000	-2.201294715	-2.061541519	21.333494490	0	0	0	#	h
201	1	12	0.100000	-2.307443271	-3.259859962	22.754020987	0	0	0	#	h
202	1	9	-0.100000	-6.842760146	-1.225625234	25.257858032	0	0	0	#	c1
203	1	7	-0.200000	-7.052275996	-1.377519831	23.738255833	0	0	0	#	c2
204	1	8	0.380000	-7.446182146	-2.443328274	25.977252199	0	0	0	#	c'
205	1	12	0.100000	-7.374325662	-0.278663866	25.605909057	0	0	0	#	h
206	1	12	0.100000	-6.614226687	-0.465626431	23.212315241	0	0	0	#	h
207	1	12	0.100000	-8.171692549	-1.432040123	23.530419311	0	0	0	#	h
208	1	13	-0.500000	-8.669162183	-2.272941133	26.844285286	0	0	0	#	n
209	1	11	-0.380000	-6.743378200	-3.778268722	25.917175409	0	0	0	#	o'
210	1	9	0.120000	-9.136113974	-3.413422258	27.714234570	0	0	0	#	c1
211	1	14	0.280000	-9.198295327	-1.297513693	26.874209544	0	0	0	#	hn
212	1	10	-0.300000	-7.995064688	-3.784630251	28.680376119	0	0	0	#	c3
213	1	10	-0.300000	-9.489191286	-4.625599192	26.832464390	0	0	0	#	c3
214	1	12	0.100000	-10.052288782	-3.091098218	28.310664921	0	0	0	#	h
215	1	12	0.100000	-7.079291190	-4.098378033	28.079440823	0	0	0	#	h
216	1	12	0.100000	-8.325799232	-4.645421449	29.350864677	0	0	0	#	h
217	1	12	0.100000	-7.730021757	-2.879804731	29.322478281	0	0	0	#	h
218	1	12	0.100000	-9.831326111	-5.489468941	27.492453419	0	0	0	#	h
219	1	12	0.100000	-8.570006504	-4.942153586	26.237648818	0	0	0	#	h
220	1	12	0.100000	-10.327252497	-4.341020822	26.113115281	0	0	0	#	h
221	1	9	-0.100000	-5.172807355	-0.848148146	27.133390634	0	0	0	#	c1
222	1	7	-0.200000	-5.349574900	-1.110486971	25.623638302	0	0	0	#	c2
223	1	8	0.380000	-5.929831639	0.445007904	27.478923136	0	0	0	#	c'
224	1	12	0.100000	-4.061488688	-0.719769240	27.355357285	0	0	0	#	h
225	1	12	0.100000	-4.804634382	-2.069464193	25.340275400	0	0	0	#	h
226	1	12	0.100000	-4.900062881	-0.236209334	25.047881397	0	0	0	#	h
227	1	13	-0.500000	-7.413899269	0.391588614	27.747295402	0	0	0	#	n
228	1	11	-0.380000	-5.175133971	1.740988763	27.651389821	0	0	0	#	o'
229	1	9	0.120000	-8.158466111	1.646042443	28.133045439	0	0	0	#	c1
230	1	14	0.280000	-7.958930854	-0.569864443	27.652645780	0	0	0	#	hn
231	1	10	-0.300000	-9.660466542	1.327844523	28.247847286	0	0	0	#	c3
232	1	10	-0.300000	-7.941294067	2.722901969	27.053971004	0	0	0	#	c3
233	1	12	0.100000	-7.770607909	2.025562687	29.135389773	0	0	0	#	h
234	1	12	0.100000	-10.044647092	0.945555709	27.244316215	0	0	0	#	h
235	1	12	0.100000	-10.228821662	2.272876198	28.537981798	0	0	0	#	h
236	1	12	0.100000	-9.819237303	0.528252620	29.044737753	0	0	0	#	h
237	1	12	0.100000	-8.506216527	3.669832410	27.343874406	0	0	0	#	h
238	1	12	0.100000	-8.328458158	2.340472639	26.052877783	0	0	0	#	h
239	1	12	0.100000	-6.828901369	2.955276300	26.967230520	0	0	0	#	h
240	1	9	-0.100000	-5.466941557	-1.790533998	29.492257041	0	0	0	#	c1
241	1	7	-0.200000	-5.718372420	-2.011083632	27.987629932	0	0	0	#	c2
242	1	8	0.380000	-3.955779554	-1.638053327	29.731201788	0	0	0	#	c'
243	1	12	0.100000	-5.853519735	-2.700545770	30.059278275	0	0	0	#	h
244	1	12	0.100000	-6.840203906	-2.118254432	27.824694515	0	0	0	#	h
245	1	12	0.100000	-5.195820177	-2.972309010	27.670404085	0	0	0	#	h
246	1	13	-0.500000	-3.200146498	-2.709649210	30.477613347	0	0	0	#	n
247	1	11	-0.380000	-3.254447003	-0.364324200	29.324410050	0	0	0	#	o'
248	1	9	0.120000	-1.767821095	-2.468997613	30.885482718	0	0	0	#	c1
249	1	14	0.280000	-3.708344361	-3.654988010	30.760336457	0	0	0	#	hn
250	1	10	-0.300000	-1.713728908	-1.196153422	31.750777931	0	0	0	#	c3
251	1	10	-0.300000	-0.898643539	-2.278747071	29.628917023	0	0	0	#	c3
252	1	12	0.100000	-1.384869894	-3.358381287	31.488137219	0	0	0	#	h
253	1	12	0.100000	-2.102318232	-0.310376861	31.147068602	0	0	0	#	h
254	1	12	0.100000	-0.637066193	-0.997115207	32.071096891	0	0	0	#	h
255	1	12	0.100000	-2.368346083	-1.336262226	32.675138869	0	0	0	#	h
256	1	12	0.100000	0.180854930	-2.086031222	29.938703654	0	0	0	#	h
257	1	12	0.100000	-1.288062140	-1.389172227	29.031305033	0	0	0	#	h
258	1	12	0.100000	-0.948529945	-3.219222942	28.986437273	0	0	0	#	h
259	1	9	-0.100000	-6.009838730	-0.334254818	31.533046017	0	0	0	#	c1
260	1	7	-0.200000	-6.188351106	-0.530692834	30.012582767	0	0	0	#	c2
261	1	8	0.380000	-6.641014701	-1.510228593	32.302635422	0	0	0	#	c'
262	1	12	0.100000	-6.545508275	0.626009138	31.834214435	0	0	0	#	h
263	1	12	0.100000	-5.766822933	0.384013265	29.479173919	0	0	0	#	h
264	1	12	0.100000	-7.301639799	-0.619348857	29.783997978	0	0	0	#	h
265	1	13	-0.500000	-6.719391539	-1.467766608	33.809802823	0	0	0	#	n
266	1	11	-0.380000	-7.220685059	-2.684848308	31.551232765	0	0	0	#	o'
267	1	9	0.120000	-7.342464000	-2.616723053	34.564974027	0	0	0	#	c1
268	1	14	0.280000	-6.310336193	-0.596119285	34.362440850	0	0	0	#	hn
269	1	10	-0.300000	-6.580668019	-3.913844895	34.237107654	0	0	0	#	c3
270	1	10	-0.300000	-8.815253980	-2.767168179	34.142206964	0	0	0	#	c3
271	1	12	0.100000	-7.284977961	-2.413629364	35.685898152	0	0	0	#	h
272	1	12	0.100000	-6.638353992	-4.113448953	33.115858727	0	0	0	#	h
273	1	12	0.100000	-7.050044587	-4.784107066	34.803389729	0	0	0	#	h
274	1	12	0.100000	-5.488599182	-3.801784024	34.547454767	0	0	0	#	h
275	1	12	0.100000	-9.286217367	-3.637074914	34.708568582	0	0	0	#	h
276	1	12	0.100000	-8.868675843	-2.969151523	33.021063604	0	0	0	#	h
277	1	12	0.100000	-9.379524072	-1.806133509	34.382510222	0	0	0	#	h
278	1	12	0.100000	-4.814782002	-0.794974734	34.011054891	0	0	0	#	h
279	1	7	-0.200000	-4.373461671	0.070989675	33.416917169	0	0	0	#	c2
280	1	7	-0.200000	-4.520642725	-0.202596166	31.909582255	0	0	0	#	c2
281	1	8	0.380000	-5.118956989	1.370888109	33.768303462	0	0	0	#	c'
282	1	12	0.100000	-3.268803840	0.181767313	33.673367233	0	0	0	#	h
283	1	12	0.100000	-4.061034597	0.661079683	31.325939491	0	0	0	#	h
284	1	12	0.100000	-3.969480869	-1.167116642	31.661454744	0	0	0	#	h
285	1	13	-0.500000	-5.568621243	1.621725586	35.187308414	0	0	0	#	n
286	1	11	-0.380000	-5.473898617	2.354263333	32.679113471	0	0	0	#	o'
287	1	15	0.220000	-6.293963708	2.899275662	35.534022807	0	0	0	#	c
288	1	14	0.280000	-5.341422066	0.879340794	35.980524520	0	0	0	#	hn
289	1	10	-0.300000	-7.657609624	2.918427507	34.819702361	0	0	0	#	c3
290	1	10	-0.300000	-6.517846368	2.963519232	37.056190416	0	0	0	#	c3
291	1	7	-0.250000	-5.464123043	4.107502988	35.058000483	0	0	0	#	c2
292	1	12	0.100000	-7.494213951	2.861801147	33.693343000	0	0	0	#	h
293	1	12	0.100000	-8.207665260	3.883280396	35.077319961	0	0	0	#	h
294	1	12	0.100000	-8.277723981	2.023864719	35.159777351	0	0	0	#	h
295	1	12	0.100000	-7.151584753	2.073930888	37.382412799	0	0	0	#	h
296	1	12	0.100000	-7.058134642	3.932435154	37.320228241	0	0	0	#	h
297	1	12	0.100000	-5.514332441	2.926687899	37.594819247	0	0	0	#	h
298	1	16	0.733500	-3.826639115	4.114581011	35.831466511	0	0	0	#	s
299	1	12	0.100000	-6.012966695	5.072117195	35.320554575	0	0	0	#	h
300	1	12	0.100000	-5.336552440	4.043851343	33.927736443	0	0	0	#	h
301	1	11	-0.338600	-3.979646187	4.260098269	37.598917226	0	0	0	#	o'
302	1	11	-0.338600	-2.971598344	2.606203635	35.428073978	0	0	0	#	o'
303	1	3	-0.950000	-2.896368271	5.501003605	35.214318780	0	0	0	#	oh
304	1	6	0.350000	-2.793047549	5.415411880	34.112412250	0	0	0	#	ho
305	1	5	0.450000	-0.993887962	3.082716832	-3.426983971	0	0	0	#	si
306	1	7	-0.200000	-0.621084407	3.875011931	-5.157114008	0	0	0	#	c2
307	1	7	-0.200000	-0.176313449	5.330421333	-4.926153336	0	0	0	#	c2
308	1	7	-0.050000	0.141932766	6.008639876	-6.270519071	0	0	0	#	c2
309	1	4	-0.180000	0.561935624	7.433008115	-6.001593181	0	0	0	#	o
310	1	8	0.410000	0.843359778	8.131685469	-7.308810047	0	0	0	#	c'
311	1	9	-0.100000	1.975801982	9.172074654	-7.387498548	0	0	0	#	c1
312	1	7	-0.200000	2.941030256	8.875505070	-8.550859156	0	0	0	#	c2
313	1	10	-0.300000	2.765993998	9.130301529	-6.066886283	0	0	0	#	c3
314	1	11	-0.380000	0.067744022	7.751673559	-8.547115468	0	0	0	#	o'
315	1	12	0.100000	-1.558710555	3.852386057	-5.806226815	0	0	0	#	h
316	1	12	0.100000	0.216255516	3.296865261	-5.672161436	0	0	0	#	h
317	1	12	0.100000	-1.013778409	5.900289224	-4.404493706	0	0	0	#	h
318	1	12	0.100000	0.754386150	5.340819935	-4.268866456	0	0	0	#	h
319	1	12	0.100000	-0.786472761	6.002510638	-6.931000144	0	0	0	#	h
320	1	12	0.100000	0.987372306	5.450624188	-6.793822250	0	0	0	#	h
321	1	12	0.100000	3.769661925	9.659712031	-8.540158557	0	0	0	#	h
322	1	12	0.100000	3.400670728	7.840657585	-8.424978749	0	0	0	#	h
323	1	12	0.100000	3.602148389	9.905680164	-6.098126239	0	0	0	#	h
324	1	12	0.100000	2.063741954	9.361507114	-5.197699111	0	0	0	#	h
325	1	12	0.100000	1.527297675	10.210822140	-7.524202749	0	0	0	#	h